9
Lattice="23.296006118037088 0.0 0.0 0.0 22.649327160371357 0.0 0.0 0.0 22.71683509278982" Properties=species:S:1:pos:R:3:momenta:R:3:forces:R:3:magmoms:R:1 Energy:=T 4.1390592=T energy=-39.76083209531696 dipole="-0.023180782262611832 -0.2117330224909788 0.07229669926034284" magmom=0.0 free_energy=-39.76083209531696 pbc="T T T"
C       12.42207036      11.83368987      10.79464830      -1.17862150      -0.21833230      -0.13767502      -0.22942962      -0.52329735       0.25867156       0.00000000
C       11.61254836      10.82499477      11.59896323       0.23021996       1.08691752      -0.54613270      -0.92578946       0.76645777       0.42994302       0.00000000
O       10.50748564      11.52654319      12.18832537       0.31178095      -0.08792325       0.12382621       0.03752302       2.16339533      -0.65470393       0.00000000
H       11.79213304      12.29264105      10.00000000      -0.57885403       0.18372423      -0.08912280      -1.09246584       0.70223584      -1.28066582       0.00000000
H       13.29600612      11.34193956      10.31171856      -0.32060622      -0.07465088       0.40556673       1.42412365      -0.87814737      -0.77459888       0.00000000
H       12.79464938      12.64932716      11.45377233      -0.14557449       0.13234199      -0.02536794       0.58570902       1.30472469       1.14388568       0.00000000
H       11.25544912      10.00000000      10.92561081      -0.21857070       0.12271089       0.17345351      -0.35346108      -1.34117558      -1.20556747       0.00000000
H       12.25979758      10.35173888      12.38565610       0.12643006       0.11904425       0.09217602       1.23475271      -0.77156483       1.10223053       0.00000000
H       10.00000000      10.86900330      12.71683509      -0.09642725       0.05203662       0.00885239      -0.75884652      -1.43688108       0.90809213       0.00000000
9
Lattice="23.296006118037088 0.0 0.0 0.0 22.649327160371357 0.0 0.0 0.0 22.71683509278982" Properties=species:S:1:pos:R:3:momenta:R:3:forces:R:3:magmoms:R:1 Energy:=T 4.1390592=T energy=-39.76083209531696 dipole="-0.023180782262611832 -0.2117330224909788 0.07229669926034284" magmom=0.0 free_energy=-39.76083209531696 pbc="T T T"
C       12.42207036      11.83368987      10.79464830       1.20668251      -0.52159639      -2.04811170      -0.22942962      -0.52329735       0.25867156       0.00000000
C       11.61254836      10.82499477      11.59896323      -0.96340423       1.03119349      -0.27738419      -0.92578946       0.76645777       0.42994302       0.00000000
O       10.50748564      11.52654319      12.18832537       0.45423593       0.69380127       0.98425372       0.03752302       2.16339533      -0.65470393       0.00000000
H       11.79213304      12.29264105      10.00000000       0.09905865       0.16640935       0.17766267      -1.09246584       0.70223584      -1.28066582       0.00000000
H       13.29600612      11.34193956      10.31171856      -0.46009166      -0.12034891       0.01198431       1.42412365      -0.87814737      -0.77459888       0.00000000
H       12.79464938      12.64932716      11.45377233       0.19795119      -0.10992564      -0.14650922       0.58570902       1.30472469       1.14388568       0.00000000
H       11.25544912      10.00000000      10.92561081       0.14286541      -0.07135525       0.15630715      -0.35346108      -1.34117558      -1.20556747       0.00000000
H       12.25979758      10.35173888      12.38565610      -0.05895327       0.10924385      -0.08113245       1.23475271      -0.77156483       1.10223053       0.00000000
H       10.00000000      10.86900330      12.71683509       0.01031353      -0.01717894      -0.23161908      -0.75884652      -1.43688108       0.90809213       0.00000000
9
Lattice="23.296006118037088 0.0 0.0 0.0 22.649327160371357 0.0 0.0 0.0 22.71683509278982" Properties=species:S:1:pos:R:3:momenta:R:3:forces:R:3:magmoms:R:1 Energy:=T 4.1390592=T energy=-39.76083209531696 dipole="-0.023180782262611832 -0.2117330224909788 0.07229669926034284" magmom=0.0 free_energy=-39.76083209531696 pbc="T T T"
C       12.42207036      11.83368987      10.79464830      -0.23531208       0.58115551       0.16361518      -0.22942962      -0.52329735       0.25867156       0.00000000
C       11.61254836      10.82499477      11.59896323       0.62268166       0.59830494       0.74667355      -0.92578946       0.76645777       0.42994302       0.00000000
O       10.50748564      11.52654319      12.18832537      -0.22534803      -0.67388656       0.13082842       0.03752302       2.16339533      -0.65470393       0.00000000
H       11.79213304      12.29264105      10.00000000      -0.09763620       0.03057441      -0.26957174      -1.09246584       0.70223584      -1.28066582       0.00000000
H       13.29600612      11.34193956      10.31171856       0.08274230      -0.17310357       0.11166108       1.42412365      -0.87814737      -0.77459888       0.00000000
H       12.79464938      12.64932716      11.45377233       0.12592181       0.30669743      -0.13976816       0.58570902       1.30472469       1.14388568       0.00000000
H       11.25544912      10.00000000      10.92561081       0.01840481      -0.08447555      -0.02317664      -0.35346108      -1.34117558      -1.20556747       0.00000000
H       12.25979758      10.35173888      12.38565610      -0.31057790       0.05153078       0.21727695       1.23475271      -0.77156483       1.10223053       0.00000000
H       10.00000000      10.86900330      12.71683509      -0.11799867      -0.09215779       0.09127541      -0.75884652      -1.43688108       0.90809213       0.00000000
9
Lattice="23.296006118037088 0.0 0.0 0.0 22.649327160371357 0.0 0.0 0.0 22.71683509278982" Properties=species:S:1:pos:R:3:momenta:R:3:forces:R:3:magmoms:R:1 Energy:=T 4.1390592=T energy=-39.76083209531696 dipole="-0.023180782262611832 -0.2117330224909788 0.07229669926034284" magmom=0.0 free_energy=-39.76083209531696 pbc="T T T"
C       12.42207036      11.83368987      10.79464830       0.04237844      -0.08656224      -0.08037588      -0.22942962      -0.52329735       0.25867156       0.00000000
C       11.61254836      10.82499477      11.59896323       0.81992738      -0.28514352       0.73975487      -0.92578946       0.76645777       0.42994302       0.00000000
O       10.50748564      11.52654319      12.18832537       0.09625874       0.07930436       0.32338001       0.03752302       2.16339533      -0.65470393       0.00000000
H       11.79213304      12.29264105      10.00000000       0.08438338       0.23865889       0.07915709      -1.09246584       0.70223584      -1.28066582       0.00000000
H       13.29600612      11.34193956      10.31171856      -0.20204951       0.22196676      -0.06802576       1.42412365      -0.87814737      -0.77459888       0.00000000
H       12.79464938      12.64932716      11.45377233      -0.00256815      -0.15337649       0.23833443       0.58570902       1.30472469       1.14388568       0.00000000
H       11.25544912      10.00000000      10.92561081       0.23662171       0.32785634       0.17817222      -0.35346108      -1.34117558      -1.20556747       0.00000000
H       12.25979758      10.35173888      12.38565610       0.45370160      -0.24211188      -0.09005179       1.23475271      -0.77156483       1.10223053       0.00000000
H       10.00000000      10.86900330      12.71683509       0.08323142      -0.02096025       0.14746179      -0.75884652      -1.43688108       0.90809213       0.00000000
9
Lattice="23.296006118037088 0.0 0.0 0.0 22.649327160371357 0.0 0.0 0.0 22.71683509278982" Properties=species:S:1:pos:R:3:momenta:R:3:forces:R:3:magmoms:R:1 Energy:=T 4.1390592=T energy=-39.76083209531696 dipole="-0.023180782262611832 -0.2117330224909788 0.07229669926034284" magmom=0.0 free_energy=-39.76083209531696 pbc="T T T"
C       12.42207036      11.83368987      10.79464830       0.21758504       0.13941974      -0.26311901      -0.22942962      -0.52329735       0.25867156       0.00000000
C       11.61254836      10.82499477      11.59896323       0.28771492       0.32145135       0.62592310      -0.92578946       0.76645777       0.42994302       0.00000000
O       10.50748564      11.52654319      12.18832537      -0.77110843       0.80450333       0.07104496       0.03752302       2.16339533      -0.65470393       0.00000000
H       11.79213304      12.29264105      10.00000000       0.00392396       0.06860515       0.02272351      -1.09246584       0.70223584      -1.28066582       0.00000000
H       13.29600612      11.34193956      10.31171856       0.07994467      -0.01199800      -0.34463285       1.42412365      -0.87814737      -0.77459888       0.00000000
H       12.79464938      12.64932716      11.45377233      -0.20226164      -0.16430698      -0.46694234       0.58570902       1.30472469       1.14388568       0.00000000
H       11.25544912      10.00000000      10.92561081       0.14767858       0.02830251       0.18612258      -0.35346108      -1.34117558      -1.20556747       0.00000000
H       12.25979758      10.35173888      12.38565610      -0.23782790      -0.38684988       0.05281803       1.23475271      -0.77156483       1.10223053       0.00000000
H       10.00000000      10.86900330      12.71683509      -0.23525672       0.03944105      -0.13442834      -0.75884652      -1.43688108       0.90809213       0.00000000
9
Lattice="23.296006118037088 0.0 0.0 0.0 22.649327160371357 0.0 0.0 0.0 22.71683509278982" Properties=species:S:1:pos:R:3:momenta:R:3:forces:R:3:magmoms:R:1 Energy:=T 4.1390592=T energy=-39.76083209531696 dipole="-0.023180782262611832 -0.2117330224909788 0.07229669926034284" magmom=0.0 free_energy=-39.76083209531696 pbc="T T T"
C       12.42207036      11.83368987      10.79464830       0.00464085       0.04154667      -0.85977782      -0.22942962      -0.52329735       0.25867156       0.00000000
C       11.61254836      10.82499477      11.59896323      -0.07437367       0.45299699       0.21620126      -0.92578946       0.76645777       0.42994302       0.00000000
O       10.50748564      11.52654319      12.18832537      -0.19887814       0.70051742       0.49548654       0.03752302       2.16339533      -0.65470393       0.00000000
H       11.79213304      12.29264105      10.00000000       0.12988786       0.42040207       0.10827068      -1.09246584       0.70223584      -1.28066582       0.00000000
H       13.29600612      11.34193956      10.31171856       0.11749324      -0.18271695       0.22066662       1.42412365      -0.87814737      -0.77459888       0.00000000
H       12.79464938      12.64932716      11.45377233      -0.04660232      -0.13316187      -0.03967851       0.58570902       1.30472469       1.14388568       0.00000000
H       11.25544912      10.00000000      10.92561081       0.39504515      -0.17399708      -0.00971164      -0.35346108      -1.34117558      -1.20556747       0.00000000
H       12.25979758      10.35173888      12.38565610       0.03216944      -0.02247241      -0.12038195       1.23475271      -0.77156483       1.10223053       0.00000000
H       10.00000000      10.86900330      12.71683509       0.11988759       0.13346597      -0.05572424      -0.75884652      -1.43688108       0.90809213       0.00000000
9
Lattice="23.296006118037088 0.0 0.0 0.0 22.649327160371357 0.0 0.0 0.0 22.71683509278982" Properties=species:S:1:pos:R:3:momenta:R:3:forces:R:3:magmoms:R:1 Energy:=T 4.1390592=T energy=-39.76083209531696 dipole="-0.023180782262611832 -0.2117330224909788 0.07229669926034284" magmom=0.0 free_energy=-39.76083209531696 pbc="T T T"
C       12.42207036      11.83368987      10.79464830      -0.18674033       0.05086388       0.19347464      -0.22942962      -0.52329735       0.25867156       0.00000000
C       11.61254836      10.82499477      11.59896323       0.22388633       0.74937031      -0.61654912      -0.92578946       0.76645777       0.42994302       0.00000000
O       10.50748564      11.52654319      12.18832537      -0.21026324       0.06306219       0.07339598       0.03752302       2.16339533      -0.65470393       0.00000000
H       11.79213304      12.29264105      10.00000000       0.04383904       0.06174130       0.02964265      -1.09246584       0.70223584      -1.28066582       0.00000000
H       13.29600612      11.34193956      10.31171856      -0.18290831       0.38713609      -0.10685738       1.42412365      -0.87814737      -0.77459888       0.00000000
H       12.79464938      12.64932716      11.45377233       0.06468054      -0.00551856      -0.37168783       0.58570902       1.30472469       1.14388568       0.00000000
H       11.25544912      10.00000000      10.92561081       0.04197829      -0.11350982      -0.06526286      -0.35346108      -1.34117558      -1.20556747       0.00000000
H       12.25979758      10.35173888      12.38565610      -0.05150517       0.00034310      -0.27344702       1.23475271      -0.77156483       1.10223053       0.00000000
H       10.00000000      10.86900330      12.71683509       0.19842927       0.06301736       0.12097403      -0.75884652      -1.43688108       0.90809213       0.00000000
9
Lattice="23.296006118037088 0.0 0.0 0.0 22.649327160371357 0.0 0.0 0.0 22.71683509278982" Properties=species:S:1:pos:R:3:momenta:R:3:forces:R:3:magmoms:R:1 Energy:=T 4.1390592=T energy=-39.76083209531696 dipole="-0.023180782262611832 -0.2117330224909788 0.07229669926034284" magmom=0.0 free_energy=-39.76083209531696 pbc="T T T"
C       12.42207036      11.83368987      10.79464830      -0.38190102       0.86920939       0.16079179      -0.22942962      -0.52329735       0.25867156       0.00000000
C       11.61254836      10.82499477      11.59896323       0.50429212      -0.11668473       0.76913000      -0.92578946       0.76645777       0.42994302       0.00000000
O       10.50748564      11.52654319      12.18832537      -1.51785981      -0.56639794       1.23139111       0.03752302       2.16339533      -0.65470393       0.00000000
H       11.79213304      12.29264105      10.00000000       0.15067585      -0.00826777       0.18747449      -1.09246584       0.70223584      -1.28066582       0.00000000
H       13.29600612      11.34193956      10.31171856      -0.29484661      -0.16117926      -0.19097471       1.42412365      -0.87814737      -0.77459888       0.00000000
H       12.79464938      12.64932716      11.45377233       0.02287146       0.05158539      -0.06890194       0.58570902       1.30472469       1.14388568       0.00000000
H       11.25544912      10.00000000      10.92561081       0.20632465       0.19848250      -0.20383568      -0.35346108      -1.34117558      -1.20556747       0.00000000
H       12.25979758      10.35173888      12.38565610       0.05451655       0.06785942      -0.03948743       1.23475271      -0.77156483       1.10223053       0.00000000
H       10.00000000      10.86900330      12.71683509       0.29682235      -0.01135523       0.05046395      -0.75884652      -1.43688108       0.90809213       0.00000000
9
Lattice="23.296006118037088 0.0 0.0 0.0 22.649327160371357 0.0 0.0 0.0 22.71683509278982" Properties=species:S:1:pos:R:3:momenta:R:3:forces:R:3:magmoms:R:1 Energy:=T 4.1390592=T energy=-39.76083209531696 dipole="-0.023180782262611832 -0.2117330224909788 0.07229669926034284" magmom=0.0 free_energy=-39.76083209531696 pbc="T T T"
C       12.42207036      11.83368987      10.79464830      -0.14182340      -0.11992553      -0.27949630      -0.22942962      -0.52329735       0.25867156       0.00000000
C       11.61254836      10.82499477      11.59896323       0.52134153      -1.30956903       0.51924364      -0.92578946       0.76645777       0.42994302       0.00000000
O       10.50748564      11.52654319      12.18832537       0.51786962       0.26178021       0.07324454       0.03752302       2.16339533      -0.65470393       0.00000000
H       11.79213304      12.29264105      10.00000000      -0.06613554       0.08461311       0.14015571      -1.09246584       0.70223584      -1.28066582       0.00000000
H       13.29600612      11.34193956      10.31171856      -0.25413104       0.02441289       0.16084241       1.42412365      -0.87814737      -0.77459888       0.00000000
H       12.79464938      12.64932716      11.45377233       0.03917075      -0.01425157      -0.28205599       0.58570902       1.30472469       1.14388568       0.00000000
H       11.25544912      10.00000000      10.92561081       0.03431481       0.01100796       0.08805237      -0.35346108      -1.34117558      -1.20556747       0.00000000
H       12.25979758      10.35173888      12.38565610      -0.12232252      -0.01039445       0.10708962       1.23475271      -0.77156483       1.10223053       0.00000000
H       10.00000000      10.86900330      12.71683509       0.17211453      -0.33980364      -0.11187758      -0.75884652      -1.43688108       0.90809213       0.00000000
9
Lattice="23.296006118037088 0.0 0.0 0.0 22.649327160371357 0.0 0.0 0.0 22.71683509278982" Properties=species:S:1:pos:R:3:momenta:R:3:forces:R:3:magmoms:R:1 Energy:=T 4.1390592=T energy=-39.76083209531696 dipole="-0.023180782262611832 -0.2117330224909788 0.07229669926034284" magmom=0.0 free_energy=-39.76083209531696 pbc="T T T"
C       12.42207036      11.83368987      10.79464830      -0.90422156      -0.25027076      -0.82095122      -0.22942962      -0.52329735       0.25867156       0.00000000
C       11.61254836      10.82499477      11.59896323       0.92555281      -0.22153495       0.36987833      -0.92578946       0.76645777       0.42994302       0.00000000
O       10.50748564      11.52654319      12.18832537       0.16281683       0.03992531      -0.66951025       0.03752302       2.16339533      -0.65470393       0.00000000
H       11.79213304      12.29264105      10.00000000      -0.07612278      -0.07190441       0.22836472      -1.09246584       0.70223584      -1.28066582       0.00000000
H       13.29600612      11.34193956      10.31171856      -0.04640427      -0.07270991       0.00761648       1.42412365      -0.87814737      -0.77459888       0.00000000
H       12.79464938      12.64932716      11.45377233       0.01807036       0.10182071       0.23253914       0.58570902       1.30472469       1.14388568       0.00000000
H       11.25544912      10.00000000      10.92561081       0.37368519       0.25770494      -0.09555611      -0.35346108      -1.34117558      -1.20556747       0.00000000
H       12.25979758      10.35173888      12.38565610      -0.07592505       0.35829733       0.03020764       1.23475271      -0.77156483       1.10223053       0.00000000
H       10.00000000      10.86900330      12.71683509       0.16938022      -0.09464243       0.00348012      -0.75884652      -1.43688108       0.90809213       0.00000000
9
Lattice="23.296006118037088 0.0 0.0 0.0 22.649327160371357 0.0 0.0 0.0 22.71683509278982" Properties=species:S:1:pos:R:3:momenta:R:3:forces:R:3:magmoms:R:1 Energy:=T 4.1390592=T energy=-39.82997455219843 dipole="-0.023788628272305466 -0.2105816951857235 0.07231454701641467" magmom=0.0 free_energy=-39.82997455219843 pbc="T T T"
C       12.42108512      11.83601369      10.79534330      -0.24328632       0.56183995       0.17007037      -0.09529748      -0.26327135       0.00419659       0.00000000
C       11.61500157      10.82751822      11.60205958       0.57214645       0.63068988       0.76280790      -1.13210654       0.55232279       0.22708042       0.00000000
O       10.50679669      11.52463759      12.18867763      -0.23039459      -0.57241775       0.10387889      -0.24302903       1.96861969      -0.44273548       0.00000000
H       11.78606871      12.29497097       9.98533316      -0.14465088       0.05968320      -0.32401365      -0.82206707       0.48313291      -0.93631879       0.00000000
H       13.30174158      11.33245461      10.31623229       0.14671952      -0.21244673       0.07643561       1.18115830      -0.72398576      -0.65985367       0.00000000
H       12.80148555      12.66583169      11.44833096       0.15167979       0.36495345      -0.08812328       0.46320805       1.06757816       0.95919861       0.00000000
H       11.25592296       9.99427933      10.92303911       0.00403489      -0.14484929      -0.07799867      -0.23171129      -1.11736484      -1.02689647       0.00000000
H       12.24614246      10.35332648      12.39756144      -0.24766288       0.01293782       0.27212743       1.32727429      -0.80001848       1.13139196       0.00000000
H        9.99334271      10.86279381      12.72236889      -0.14948169      -0.15606696       0.13027986      -0.52320568      -1.16562948       0.68024820       0.00000000
9
Lattice="23.296006118037088 0.0 0.0 0.0 22.649327160371357 0.0 0.0 0.0 22.71683509278982" Properties=species:S:1:pos:R:3:momenta:R:3:forces:R:3:magmoms:R:1 Energy:=T 4.1390592=T energy=-39.7437466584597 dipole="-0.026285502925093785 -0.21409281710384256 0.06656030649437715" magmom=0.0 free_energy=-39.7437466584597 pbc="T T T"
C       12.42293703      11.83420741      10.79359837       0.20679711       0.09656226      -0.26560608      -0.20987679      -1.22194568      -0.35995005       0.00000000
C       11.61363187      10.82638616      11.60156583       0.24290239       0.35906475       0.64989900      -0.89906743       0.76523583       0.54640414       0.00000000
O       10.50512133      11.52917593      12.18849410      -0.76932007       0.90752053       0.04052999       0.03530279       2.03167347      -0.58792706       0.00000000
H       11.79101710      12.29682397       9.99957486      -0.04962785       0.10144187      -0.03892926      -1.08827219       0.63494204      -1.22995975       0.00000000
H       13.30160527      11.34030427      10.29399997       0.14196644      -0.05079328      -0.37777857       1.10152847      -0.70167468      -0.57516204       0.00000000
H       12.78549524      12.64288262      11.43238983      -0.16631823      -0.08674315      -0.39962841       0.87797936       1.85383138       1.59727386       0.00000000
H       11.26222165       9.99977429      10.93323694       0.12859085      -0.03900619       0.12441263      -0.42382985      -1.39977092      -1.30738675       0.00000000
H       12.24968710      10.33196696      12.38954840      -0.17791150      -0.42190938       0.10555861       1.20516434      -0.65612908       1.04547267       0.00000000
H        9.98762947      10.86920579      12.71137178      -0.27007541      -0.02849405      -0.09277732      -0.65904111      -1.32957363       0.78802175       0.00000000
9
Lattice="23.296006118037088 0.0 0.0 0.0 22.649327160371357 0.0 0.0 0.0 22.71683509278982" Properties=species:S:1:pos:R:3:momenta:R:3:forces:R:3:magmoms:R:1 Energy:=T 4.1390592=T energy=-39.73139576191906 dipole="-0.016624722957609923 -0.21441673880848203 0.07002965947780393" magmom=0.0 free_energy=-39.73139576191906 pbc="T T T"
C       12.42048571      11.83719155      10.79533175      -0.38699529       0.83830346       0.18050304       0.02198087      -0.73525474       0.54401031       0.00000000
C       11.61451747      10.82459460      11.60215141       0.45582319      -0.07371711       0.78727028      -1.04796320       0.98327051       0.30876608       0.00000000
O       10.50282896      11.52496756      12.19205612      -1.50744378      -0.45651625       1.19117829       0.38663864       2.31120934      -0.98284365       0.00000000
H       11.79816739      12.29307844      10.00760214       0.09083895       0.02987577       0.11844858      -1.34421394       0.85104617      -1.53020860       0.00000000
H       13.28334406      11.33303561      10.30148676      -0.22539379      -0.20301962      -0.22791755       1.40413586      -0.82567675      -0.72978828       0.00000000
H       12.79646456      12.65340169      11.45178382       0.05270335       0.11529146      -0.01304922       0.62910590       1.28951518       1.13054993       0.00000000
H       11.26507911      10.00806609      10.91423673       0.18866631       0.13231637      -0.26205477      -0.36562225      -1.35324286      -1.16523156       0.00000000
H       12.26393120      10.35412207      12.38505094       0.11572727       0.02910822       0.01590262       1.25787152      -0.80646242       1.15336443       0.00000000
H       10.01355432      10.86673081      12.72038041       0.25393328      -0.08891287       0.10164658      -0.98768307      -1.72142284       1.17616791       0.00000000
9
Lattice="23.296006118037088 0.0 0.0 0.0 22.649327160371357 0.0 0.0 0.0 22.71683509278982" Properties=species:S:1:pos:R:3:momenta:R:3:forces:R:3:magmoms:R:1 Energy:=T 4.1390592=T energy=-39.776067648473735 dipole="-0.028391057894292377 -0.2083395716285261 0.07417786663388033" magmom=0.0 free_energy=-39.776067648473735 pbc="T T T"
C       12.41722789      11.83274455      10.79411131      -1.20599248      -0.22481149      -0.13126768      -0.88517178       0.25945170       0.00224821       0.00000000
C       11.61339677      10.82951618      11.59677324       0.18543051       1.11839005      -0.51508603      -0.89812727       0.51516739       0.83434021       0.00000000
O       10.50844556      11.52643637      12.18865613       0.31039431       0.01809093       0.09481278      -0.09398985       2.15371673      -0.52678166       0.00000000
H       11.76262201      12.30243300       9.99412530      -0.62101038       0.21013040      -0.13998351      -0.62422595       0.37307691      -0.79048528       0.00000000
H       13.28208896      11.33725159      10.33055246      -0.24132610      -0.12213501       0.36099728       1.80432309      -1.05550222      -1.04035918       0.00000000
H       12.78825725      12.65733645      11.45390496      -0.11863712       0.19239781       0.02780364       0.51123540       1.14086980       1.02136877       0.00000000
H       11.24437664      10.00437422      10.93261965      -0.23494683       0.05555838       0.11332343      -0.31340807      -1.39341032      -1.24305111       0.00000000
H       12.26743509      10.35661598      12.39146607       0.18318146       0.08362591       0.14081968       1.07627908      -0.67074175       0.87863787       0.00000000
H        9.99439375      10.86981950      12.71835294      -0.13101277      -0.01626776       0.05076304      -0.64954588      -1.34461137       0.79859410       0.00000000
9
Lattice="23.296006118037088 0.0 0.0 0.0 22.649327160371357 0.0 0.0 0.0 22.71683509278982" Properties=species:S:1:pos:R:3:momenta:R:3:forces:R:3:magmoms:R:1 Energy:=T 4.1390592=T energy=-39.72077932279948 dipole="-0.019411865956402388 -0.21037801024400743 0.07206749144830746" magmom=0.0 free_energy=-39.72077932279948 pbc="T T T"
C       12.42128373      11.83384530      10.79546540      -0.20603703       0.02721745       0.20219118      -0.55637109      -0.43963312       0.09628348       0.00000000
C       11.61337088      10.82813594      11.59648531       0.17266345       0.78202263      -0.60025029      -1.16010980       0.56321065       0.23377800       0.00000000
O       10.50684300      11.52689986      12.18850132      -0.20662823       0.17006618       0.03915456       0.11050186       2.19402387      -0.73967614       0.00000000
H       11.79296191      12.29648954       9.99991199      -0.00986495       0.09580379      -0.03242215      -1.09446940       0.68485751      -1.24673834       0.00000000
H       13.28879811      11.35975155      10.30558527      -0.10650854       0.33949939      -0.14865019       1.68702961      -1.06171550      -0.92728869       0.00000000
H       12.79850165      12.65061937      11.43703098       0.09531840       0.06343194      -0.31061542       0.66192645       1.50307927       1.34310636       0.00000000
H       11.25707155       9.99286467      10.92098851       0.02637906      -0.17407473      -0.12116266      -0.28177115      -1.12515006      -1.07078519       0.00000000
H       12.25876543      10.35083243      12.37365156       0.01172312      -0.03926334      -0.21541628       1.34003106      -0.84128950       1.26089826       0.00000000
H       10.00876025      10.87035452      12.72381592       0.16050342      -0.00903459       0.16709299      -0.78557079      -1.49722021       0.96996510       0.00000000
9
Lattice="23.296006118037088 0.0 0.0 0.0 22.649327160371357 0.0 0.0 0.0 22.71683509278982" Properties=species:S:1:pos:R:3:momenta:R:3:forces:R:3:magmoms:R:1 Energy:=T 4.1390592=T energy=-39.73815334563374 dipole="-0.02245383665232191 -0.21495992204663575 0.07118730840262294" magmom=0.0 free_energy=-39.73815334563374 pbc="T T T"
C       12.42146740      11.83314694      10.79353140      -0.16209910      -0.14617321      -0.26345073      -0.59623770      -0.54556145       0.39473668       0.00000000
C       11.61458718      10.81971685      11.60112961       0.47626249      -1.26353355       0.53891391      -0.90992047       1.10819992       0.37106999       0.00000000
O       10.50907821      11.52750988      12.18850086       0.51543165       0.35901088       0.04622179      -0.13680205       1.79603424      -0.44571725       0.00000000
H       11.78760354      12.29760394      10.00529659      -0.12003447       0.11824094       0.07698100      -1.10240769       0.66715773      -1.29193599       0.00000000
H       13.28532787      11.34207834      10.31862859      -0.17605931      -0.02286706       0.11726075       1.75511547      -1.04718781      -1.00013431       0.00000000
H       12.79725872      12.65019387      11.44139817       0.06918408       0.05217205      -0.22278250       0.63649442       1.40017953       1.26985108       0.00000000
H       11.25669815       9.99893164      10.92845859       0.01620665      -0.05672413       0.02747030      -0.38393955      -1.41701207      -1.26145693       0.00000000