9
Lattice="23.296006118037088 0.0 0.0 0.0 22.649327160371357 0.0 0.0 0.0 22.71683509278982" Properties=species:S:1:pos:R:3:momenta:R:3:forces:R:3:magmoms:R:1 Energy:=T 4.1390592=T energy=-45.01323826005906 dipole="0.040659091418900284 -0.27403393182426683 0.04434660481177885" magmom=0.0 free_energy=-45.01323826009472 pbc="T T T"
C       12.42207036      11.83368987      10.79464830       0.00000000       0.00000000       0.00000000      -0.01584944      -0.00969100      -0.02009886       0.00000000
C       11.61254836      10.82499477      11.59896323       0.00000000       0.00000000       0.00000000      -0.01656280      -0.04695479      -0.01369528       0.00000000
O       10.50748564      11.52654319      12.18832537       0.00000000       0.00000000       0.00000000      -0.05038860       0.02284812      -0.02998358       0.00000000
H       11.79213304      12.29264105      10.00000000       0.00000000       0.00000000       0.00000000      -0.00457543       0.00154080       0.00338758       0.00000000
H       13.29600612      11.34193956      10.31171856       0.00000000       0.00000000       0.00000000       0.01602858      -0.01173800      -0.01359485       0.00000000
H       12.79464938      12.64932716      11.45377233       0.00000000       0.00000000       0.00000000       0.00597470       0.00309655       0.00388407       0.00000000
H       11.25544912      10.00000000      10.92561081       0.00000000       0.00000000       0.00000000       0.00565589       0.00021340      -0.00638453       0.00000000
H       12.25979758      10.35173888      12.38565610       0.00000000       0.00000000       0.00000000       0.01014562       0.00767099      -0.00935420       0.00000000
H       10.00000000      10.86900330      12.71683509       0.00000000       0.00000000       0.00000000      -0.00752801       0.00298183       0.00409534       0.00000000
9
Lattice="23.296006118037088 0.0 0.0 0.0 22.649327160371357 0.0 0.0 0.0 22.71683509278982" Properties=species:S:1:pos:R:3:momenta:R:3:forces:R:3:magmoms:R:1 Energy:=T 4.1390592=T energy=-45.01326071012438 dipole="0.04061203094066941 -0.2740626806822023 0.04440486736521772" magmom=0.0 free_energy=-45.01326071015971 pbc="T T T"
C       12.42205508      11.83367966      10.79463060      -0.00088791      -0.00160277      -0.00254818       0.00046565      -0.00996288      -0.01492564       0.00000000
C       11.61253194      10.82492469      11.59895582      -0.00215059      -0.00823036      -0.00130682      -0.01167565      -0.04017137      -0.00869146       0.00000000
O       10.50743251      11.52657477      12.18830016      -0.00926184       0.00444313      -0.00491578      -0.05024603       0.01904828      -0.02914428       0.00000000
H       11.79216690      12.29273443      10.00023873      -0.00049268       0.00081221       0.00114107      -0.00678473       0.00339106      -0.00085364       0.00000000
H       13.29643442      11.34177873      10.31163218       0.00264310      -0.00139254      -0.00128945       0.00453510      -0.00577564      -0.00861515       0.00000000
H       12.79488521      12.64945032      11.45402056       0.00141839       0.00017459       0.00105405       0.00212082      -0.00465602      -0.00223599       0.00000000
H       11.25567886      10.00006797      10.92566247       0.00147468      -0.00007024      -0.00061192       0.00301274      -0.00426539      -0.00892786       0.00000000
H       12.26011326      10.35194962      12.38565090       0.00235872       0.00182994      -0.00104629       0.00752292       0.00762180      -0.01038025       0.00000000
H        9.99997734      10.86912427      12.71708737      -0.00066911       0.00108247       0.00151193      -0.00562825       0.00470141       0.00221415       0.00000000
9
Lattice="23.296006118037088 0.0 0.0 0.0 22.649327160371357 0.0 0.0 0.0 22.71683509278982" Properties=species:S:1:pos:R:3:momenta:R:3:forces:R:3:magmoms:R:1 Energy:=T 4.1390592=T energy=-45.01327923582978 dipole="0.04059195309546294 -0.2740981077910942 0.0446218182281067" magmom=0.0 free_energy=-45.01327923586425 pbc="T T T"
C       12.42206152      11.83364807      10.79459393       0.00308763      -0.00291607      -0.00274349       0.02742552      -0.01002717      -0.00510646       0.00000000
C       11.61249812      10.82473565      11.59894957      -0.00223316      -0.01391307      -0.00037266      -0.00168547      -0.02397897       0.00009740       0.00000000
O       10.50727286      11.52666064      12.18822627      -0.01759055       0.00813217      -0.00893266      -0.04671897       0.01159404      -0.02967825       0.00000000
H       11.79218223      12.29308663      10.00079364      -0.00086733       0.00239454       0.00204834      -0.00963044       0.00598035      -0.00813311       0.00000000
H       13.29728052      11.34152369      10.31156254       0.00275852      -0.00087606      -0.00045072      -0.01611365       0.00440347      -0.00095116       0.00000000
H       12.79544527      12.64952360      11.45453197       0.00238732      -0.00138598       0.00139282      -0.00495069      -0.01793780      -0.01253426       0.00000000
H       11.25626701      10.00010078      10.92571952       0.00277354      -0.00107102      -0.00095408      -0.00248650      -0.01261758      -0.01269346       0.00000000
H       12.26096087      10.35258210      12.38559509       0.00449157       0.00386337      -0.00142744       0.00145083       0.00629262      -0.01161694       0.00000000
H        9.99998026      10.86955447      12.71777364      -0.00026850       0.00279380       0.00348481      -0.00288585       0.00597022      -0.00037052       0.00000000
9
Lattice="23.296006118037088 0.0 0.0 0.0 22.649327160371357 0.0 0.0 0.0 22.71683509278982" Properties=species:S:1:pos:R:3:momenta:R:3:forces:R:3:magmoms:R:1 Energy:=T 4.1390592=T energy=-45.0133026734291 dipole="0.04080291270752109 -0.27404707866830186 0.045064402852452584" magmom=0.0 free_energy=-45.01330267346241 pbc="T T T"
C       12.42217595      11.83359508      10.79456976       0.00971666      -0.00411340      -0.00150004       0.02769719      -0.00889340      -0.00022682       0.00000000
C       11.61247873      10.82448033      11.59897255      -0.00073404      -0.01633360       0.00155857       0.00459709      -0.00736568       0.00156517       0.00000000
O       10.50701537      11.52678264      12.18810247      -0.02457277       0.01048379      -0.01349423      -0.03667348       0.00558643      -0.03473678       0.00000000
H       11.79206533      12.29379693      10.00138183      -0.00131577       0.00409427       0.00207975      -0.00728877       0.00457872      -0.00955188       0.00000000
H       13.29774635      11.34156621      10.31180105       0.00025077       0.00075091       0.00094531      -0.02177989       0.00542336      -0.00283476       0.00000000
H       12.79605243      12.64903902      11.45490811       0.00240069      -0.00440882       0.00063987      -0.00727548      -0.01957139      -0.01313417       0.00000000
H       11.25699664       9.99977945      10.92563511       0.00313932      -0.00315050      -0.00149128      -0.00615309      -0.01528853      -0.01077239       0.00000000
H       12.26210080      10.35358472      12.38543901       0.00538527       0.00533309      -0.00178336      -0.00472042       0.00192098      -0.01000217       0.00000000
H       10.00010921      10.87034241      12.71879047       0.00039994       0.00427649       0.00519598      -0.00266449       0.00237809      -0.00021745       0.00000000
9
Lattice="23.296006118037088 0.0 0.0 0.0 22.649327160371357 0.0 0.0 0.0 22.71683509278982" Properties=species:S:1:pos:R:3:momenta:R:3:forces:R:3:magmoms:R:1 Energy:=T 4.1390592=T energy=-45.01332724978246 dipole="0.04126838744072877 -0.27388643636717747 0.04571972783390244" magmom=0.0 free_energy=-45.01332724981466 pbc="T T T"
C       12.42239862      11.83352471      10.79457340       0.01337780      -0.00499572       0.00013505      -0.00240039      -0.00705969      -0.00089026       0.00000000
C       11.61249348      10.82421270      11.59902905       0.00128399      -0.01596727       0.00284532       0.00388819       0.00402662      -0.00620404       0.00000000
O       10.50668418      11.52692637      12.18791641      -0.02931138       0.01165023      -0.01917280      -0.02381830      -0.00056498      -0.04093317       0.00000000
H       11.79190030      12.29481472      10.00194381      -0.00092723       0.00519206       0.00239508      -0.00081956      -0.00030746      -0.00497234       0.00000000
H       13.29760898      11.34194908      10.31227069      -0.00149563       0.00149286       0.00090778      -0.00805065      -0.00480151      -0.01529078       0.00000000
H       12.79661141      12.64793858      11.45512111       0.00255376      -0.00636272       0.00085260      -0.00320026      -0.00729327      -0.00244599       0.00000000
H       11.25772094       9.99900604      10.92547829       0.00309761      -0.00489744      -0.00102080      -0.00629966      -0.00945907      -0.00220093       0.00000000
H       12.26328992      10.35479288      12.38524006       0.00517166       0.00573919      -0.00155265      -0.00946440      -0.00468156      -0.00541441       0.00000000
H       10.00036684      10.87135356      12.72013800       0.00106177       0.00492488       0.00691018      -0.00264784      -0.00268039      -0.00004045       0.00000000
9
Lattice="23.296006118037088 0.0 0.0 0.0 22.649327160371357 0.0 0.0 0.0 22.71683509278982" Properties=species:S:1:pos:R:3:momenta:R:3:forces:R:3:magmoms:R:1 Energy:=T 4.1390592=T energy=-45.01330375238741 dipole="0.04181275045071536 -0.2736841941028484 0.04646963456801419" magmom=0.0 free_energy=-45.013303752418786 pbc="T T T"
C       12.42263216      11.83344346      10.79460215       0.01156145      -0.00557187       0.00185234      -0.02766328      -0.00615382       0.00096428       0.00000000
C       11.61253955      10.82397002      11.59909354       0.00288715      -0.01369928       0.00265194       0.00071844       0.01158581      -0.01314177       0.00000000
O       10.50631009      11.52707738      12.18765289      -0.03180825       0.01135234      -0.02573506      -0.01367475      -0.00962034      -0.04350956       0.00000000
H       11.79192866      12.29595912      10.00264818       0.00039417       0.00554230       0.00336067       0.00253174      -0.00335538      -0.00257975       0.00000000
H       13.29738825      11.34228732      10.31248799      -0.00065484       0.00031680      -0.00144114       0.00486332      -0.01444321      -0.02602219       0.00000000
H       12.79727183      12.64669988      11.45557356       0.00347708      -0.00600685       0.00295275       0.00090060       0.00355209       0.00642603       0.00000000
H       11.25842790       9.99801112      10.92557074       0.00307338      -0.00530264       0.00106918      -0.00564009      -0.00201305       0.00605555       0.00000000
H       12.26434004      10.35596005      12.38516745       0.00406253       0.00501488      -0.00048423      -0.01349574      -0.00991430      -0.00113723       0.00000000
H       10.00074739      10.87240052      12.72181574       0.00198766       0.00494406       0.00823672       0.00035691      -0.00435599      -0.00378405       0.00000000
9
Lattice="23.296006118037088 0.0 0.0 0.0 22.649327160371357 0.0 0.0 0.0 22.71683509278982" Properties=species:S:1:pos:R:3:momenta:R:3:forces:R:3:magmoms:R:1 Energy:=T 4.1390592=T energy=-45.01328618614646 dipole="0.04229269906562411 -0.27352098028265504 0.04718906658935754" magmom=0.0 free_energy=-45.01328618617738 pbc="T T T"
C       12.42279482      11.83335494      10.79466133       0.00813353      -0.00607022       0.00453185      -0.01843834      -0.00670019       0.00929754       0.00000000
C       11.61260610      10.82377723      11.59914313       0.00410412      -0.00988961       0.00213847       0.00035820       0.01931567      -0.00909243       0.00000000
O       10.50591719      11.52721430      12.18730535      -0.03256519       0.00941951      -0.03259209      -0.00578094      -0.01762435      -0.04366275       0.00000000
H       11.79227112      12.29712132      10.00357917       0.00164439       0.00580293       0.00410665      -0.00114803      -0.00163184      -0.00682377       0.00000000
H       13.29757115      11.34222009      10.31203552       0.00075798      -0.00158195      -0.00467600      -0.00183747      -0.01259347      -0.02396877       0.00000000
H       12.79818317      12.64574623      11.45659756       0.00457443      -0.00493570       0.00543269      -0.00103436      -0.00043323       0.00181800       0.00000000
H       11.25913544       9.99708801      10.92622101       0.00289856      -0.00484423       0.00397839      -0.00745015      -0.00109717       0.00653481       0.00000000
H       12.26508974      10.35689403      12.38537764       0.00210417       0.00368609       0.00106737      -0.01773946      -0.01126067      -0.00011312       0.00000000
H       10.00135840      10.87342711      12.72367282       0.00349370       0.00476399       0.00861916       0.00365118      -0.00512532      -0.00925913       0.00000000
9
Lattice="23.296006118037088 0.0 0.0 0.0 22.649327160371357 0.0 0.0 0.0 22.71683509278982" Properties=species:S:1:pos:R:3:momenta:R:3:forces:R:3:magmoms:R:1 Energy:=T 4.1390592=T energy=-45.01327026136424 dipole="0.0427657258818465 -0.27340661459626453 0.047858089478966276" magmom=0.0 free_energy=-45.0132702613951 pbc="T T T"
C       12.42291568      11.83325828      10.79477715       0.00849261      -0.00664617       0.00874571       0.01123013      -0.00749619       0.01694814       0.00000000
C       11.61269135      10.82365998      11.59919030       0.00537078      -0.00452187       0.00329247       0.00161818       0.02694562       0.00415447       0.00000000
O       10.50552412      11.52731850      12.18687318      -0.03174703       0.00659553      -0.03959341       0.00269153      -0.01924688      -0.04477401       0.00000000
H       11.79277929      12.29837746      10.00456783       0.00189621       0.00657927       0.00393214      -0.00724063       0.00136436      -0.01161222       0.00000000
H       13.29789361      11.34182904      10.31098655      -0.00040618      -0.00230494      -0.00663734      -0.02097866      -0.00303863      -0.01277783       0.00000000
H       12.79926380      12.64493522      11.45800975       0.00489111      -0.00544864       0.00612204      -0.00665409      -0.01310627      -0.01144140       0.00000000
H       11.25976707       9.99628210      10.92744044       0.00211965      -0.00478426       0.00616690      -0.01141478      -0.00660852      -0.00091573       0.00000000
H       12.26536978      10.35755383      12.38590322      -0.00058966       0.00247444       0.00255019      -0.02063107      -0.00927444      -0.00149178       0.00000000
H       10.00231838      10.87441417      12.72549314       0.00522607       0.00417857       0.00819453       0.00305810      -0.00901976      -0.01166169       0.00000000
9
Lattice="23.296006118037088 0.0 0.0 0.0 22.649327160371357 0.0 0.0 0.0 22.71683509278982" Properties=species:S:1:pos:R:3:momenta:R:3:forces:R:3:magmoms:R:1 Energy:=T 4.1390592=T energy=-45.01326423767947 dipole="0.04338500430435236 -0.2732795880736254 0.04855133187804427" magmom=0.0 free_energy=-45.01326423771075 pbc="T T T"
C       12.42308967      11.83315177      10.79497347       0.01284573      -0.00724552       0.01344289       0.02248132      -0.00747027       0.01466244       0.00000000
C       11.61279891      10.82364350      11.59927700       0.00643729       0.00180417       0.00675925      -0.00141197       0.02862306       0.01484998       0.00000000
O       10.50515104      11.52738673      12.18635341      -0.02943370       0.00395422      -0.04670626       0.00966265      -0.01631329      -0.04455761       0.00000000
H       11.79321513      12.29985184      10.00542354       0.00135766       0.00760300       0.00355836      -0.00894452       0.00038718      -0.00847282       0.00000000
H       13.29761836      11.34149014      10.30976298      -0.00422448      -0.00165477      -0.00684794      -0.02862982       0.00085669      -0.00580124       0.00000000
H       12.80029371      12.64379177      11.45929491       0.00449211      -0.00749808       0.00482574      -0.00806638      -0.01660528      -0.01800327       0.00000000
H       11.26016648       9.99539235      10.92893583       0.00071132      -0.00555697       0.00674609      -0.01362187      -0.01009552      -0.00943480       0.00000000
H       12.26506548      10.35802568      12.38668373      -0.00347608       0.00177447       0.00379485      -0.01949315      -0.00658244      -0.00213711       0.00000000
H       10.00359941      10.87522254      12.72717742       0.00655877       0.00281662       0.00748538      -0.00014406      -0.01355133      -0.01177495       0.00000000
9
Lattice="23.296006118037088 0.0 0.0 0.0 22.649327160371357 0.0 0.0 0.0 22.71683509278982" Properties=species:S:1:pos:R:3:momenta:R:3:forces:R:3:magmoms:R:1 Energy:=T 4.1390592=T energy=-45.01329541314423 dipole="0.044168433986438424 -0.2730831604349635 0.04930934138920703" magmom=0.0 free_energy=-45.013295413176415 pbc="T T T"
C       12.42335276      11.83303598      10.79524177       0.01629836      -0.00778482       0.01685527       0.00217253      -0.00718182       0.00459446       0.00000000
C       11.61291895      10.82373349      11.59943646       0.00622977       0.00742167       0.01119097      -0.01129608       0.01954520       0.01468014       0.00000000
O       10.50481473      11.52742645      12.18574596      -0.02635427       0.00182587      -0.05324427       0.01053310      -0.01434159      -0.03842262       0.00000000
H       11.79351285      12.30151200      10.00625419       0.00089098       0.00808910       0.00437907      -0.00648116      -0.00436889       0.00119123       0.00000000
H       13.29645297      11.34135776      10.30861975      -0.00739416      -0.00132508      -0.00678514      -0.01440077      -0.00657498      -0.00935840       0.00000000
H       12.80121820      12.64218802      11.46018974       0.00455293      -0.00868786       0.00343030      -0.00194015      -0.00467299      -0.01182009       0.00000000
H       11.26024889       9.99429094      10.93036839      -0.00065064      -0.00611759       0.00609501      -0.01092828      -0.00474736      -0.01278075       0.00000000
H       12.26422063      10.35841820      12.38768169      -0.00570979       0.00152348       0.00501448      -0.01399712      -0.00499403      -0.00107956       0.00000000
H       10.00507773      10.87568445      12.72870905       0.00740112       0.00107515       0.00655934      -0.00187391      -0.01318278      -0.01322829       0.00000000
9
Lattice="23.296006118037088 0.0 0.0 0.0 22.649327160371357 0.0 0.0 0.0 22.71683509278982" Properties=species:S:1:pos:R:3:momenta:R:3:forces:R:3:magmoms:R:1 Energy:=T 4.1390592=T energy=-45.0132980362297 dipole="0.04493723790523465 -0.2728343807881311 0.05006443019012877" magmom=0.0 free_energy=-45.013298036263 pbc="T T T"
C       12.42363960      11.83291177      10.79554802       0.01547905      -0.00836396       0.01860702      -0.02095182      -0.00783864      -0.00118948       0.00000000
C       11.61301973      10.82390054      11.59966641       0.00394866       0.01052114       0.01481153      -0.02252993       0.00313336       0.00765762       0.00000000
O       10.50451726      11.52744238      12.18506461      -0.02365248      -0.00002261      -0.05818336       0.00583594      -0.01344409      -0.02743604       0.00000000
H       11.79376708      12.30317459      10.00741059       0.00065356       0.00779523       0.00659917      -0.00662649      -0.00748740       0.00677760       0.00000000
H       13.29494345      11.34114629      10.30740184      -0.00724387      -0.00267177      -0.00776867       0.00510466      -0.01615370      -0.01547011       0.00000000
H       12.80227191      12.64058030      11.46091244       0.00592210      -0.00732116       0.00336270       0.00524834       0.00944744      -0.00351651       0.00000000
H       11.26011801       9.99318193      10.93159120      -0.00112115      -0.00508786       0.00515495      -0.00457753       0.00613334      -0.01139429       0.00000000
H       12.26304659      10.35879128      12.38891825      -0.00672408       0.00151316       0.00625344      -0.00712738      -0.00408312      -0.00092968       0.00000000
H       10.00668691      10.87581352      12.73001363       0.00798148      -0.00020050       0.00517497      -0.00280177      -0.00878334      -0.01546251       0.00000000
9
Lattice="23.296006118037088 0.0 0.0 0.0 22.649327160371357 0.0 0.0 0.0 22.71683509278982" Properties=species:S:1:pos:R:3:momenta:R:3:forces:R:3:magmoms:R:1 Energy:=T 4.1390592=T energy=-45.01328537731041 dipole="0.045491190589092546 -0.2726179465824985 0.0507225907737623" magmom=0.0 free_energy=-45.013285377344616 pbc="T T T"
C       12.42387598      11.83277654      10.79587170       0.01305336      -0.00914438       0.02013956      -0.01423748      -0.00892227       0.00356538       0.00000000
C       11.61306529      10.82409132      11.59994233       0.00020363       0.01064064       0.01727485      -0.02628313      -0.01041782       0.00413076       0.00000000
O       10.50424731      11.52743636      12.18433457      -0.02195773      -0.00142677      -0.06109333       0.00027070      -0.00952775      -0.01669501       0.00000000
H       11.79397324      12.30471411      10.00908352      -0.00016471       0.00730692       0.00879960      -0.01244551      -0.00603046       0.00219748       0.00000000
H       13.29383754      11.34048328      10.30585322      -0.00495643      -0.00487872      -0.00919129       0.00730938      -0.01503519      -0.01267865       0.00000000
H       12.80373052      12.63950274      11.46175855       0.00799725      -0.00467948       0.00374654       0.00522391       0.00864773      -0.00605612       0.00000000
H       11.26001808       9.99247547      10.93263523      -0.00043924      -0.00241291       0.00422560       0.00074857       0.01233777      -0.01151737       0.00000000
H       12.26180765      10.35917363      12.39037636      -0.00660875       0.00169812       0.00708420      -0.00256311      -0.00268518      -0.00404490       0.00000000
H       10.00839212      10.87577246      12.73098368       0.00808459      -0.00078546       0.00356449      -0.00676801      -0.00585172      -0.01438310       0.00000000
9
Lattice="23.296006118037088 0.0 0.0 0.0 22.649327160371357 0.0 0.0 0.0 22.71683509278982" Properties=species:S:1:pos:R:3:momenta:R:3:forces:R:3:magmoms:R:1 Energy:=T 4.1390592=T energy=-45.01325877576335 dipole="0.04580714329505321 -0.27249629987152807 0.05128694247273514" magmom=0.0 free_energy=-45.013258775798015 pbc="T T T"
C       12.42408364      11.83262626      10.79622608       0.01420328      -0.01004436       0.02269658       0.01534021      -0.00871668       0.01048547       0.00000000
C       11.61304378      10.82426170      11.60025084      -0.00321445       0.00907162       0.01959428      -0.01933444      -0.01370004       0.00745322       0.00000000
O       10.50399152      11.52741741      12.18358036      -0.02133475      -0.00186193      -0.06213337      -0.00512033      -0.00324947      -0.00723806       0.00000000
H       11.79391013      12.30617973      10.01107359      -0.00208477       0.00709411       0.00958402      -0.01792762      -0.00433643      -0.00638293       0.00000000
H       13.29322028      11.33940552      10.30405796      -0.00394301      -0.00583944      -0.00930155      -0.00789866      -0.00315042      -0.00091721       0.00000000
H       12.80559378      12.63891713      11.46260743       0.00946359      -0.00350060       0.00272831      -0.00098477      -0.00504780      -0.01656611       0.00000000
H       11.26015414       9.99240152      10.93347277       0.00088170       0.00041685       0.00266169       0.00186865       0.00810699      -0.01665220       0.00000000
H       12.26067989      10.35961197      12.39191316      -0.00587689       0.00213218       0.00698002      -0.00092037      -0.00119043      -0.00921580       0.00000000
H       10.01004280      10.87566695      12.73163772       0.00716115      -0.00104060       0.00232770      -0.01332051      -0.00508207      -0.01046726       0.00000000
9
Lattice="23.296006118037088 0.0 0.0 0.0 22.649327160371357 0.0 0.0 0.0 22.71683509278982" Properties=species:S:1:pos:R:3:momenta:R:3:forces:R:3:magmoms:R:1 Energy:=T 4.1390592=T energy=-45.01320932316602 dipole="0.04602900575355695 -0.27243562853740055 0.051848536386001114" magmom=0.0 free_energy=-45.01320932320075 pbc="T T T"
C       12.42435745      11.83246121      10.79663120       0.01967561      -0.01067443       0.02554998       0.02988585      -0.00594142       0.00795426       0.00000000
C       11.61297745      10.82440080      11.60060043      -0.00475039       0.00761494       0.02232674      -0.00708030      -0.00905185       0.00970309       0.00000000
O       10.50373674      11.52740041      12.18282320      -0.02201023      -0.00137709      -0.06128826      -0.01283922       0.00007930       0.00380544       0.00000000
H       11.79336659      12.30763162      10.01302659      -0.00431080       0.00668385       0.00922144      -0.01549357      -0.00779561      -0.00813821       0.00000000
H       13.29250716      11.33836360      10.30244099      -0.00553195      -0.00472510      -0.00756526      -0.01906790       0.00632200       0.00744592       0.00000000
H       12.80762158      12.63829395      11.46303156       0.00989899      -0.00447850       0.00015241      -0.00514744      -0.01304133      -0.02060302       0.00000000
H       11.26056677       9.99279241      10.93388229       0.00214451       0.00185858      -0.00008061       0.00027817      -0.00149722      -0.02221207       0.00000000
H       12.25972409      10.36015863      12.39330526      -0.00488904       0.00262298       0.00589783       0.00015434      -0.00185184      -0.01267518       0.00000000
H       10.01138646      10.87552176      12.73210066       0.00514742      -0.00095634       0.00154162      -0.01778377      -0.00215232      -0.00848737       0.00000000
9
Lattice="23.296006118037088 0.0 0.0 0.0 22.649327160371357 0.0 0.0 0.0 22.71683509278982" Properties=species:S:1:pos:R:3:momenta:R:3:forces:R:3:magmoms:R:1 Energy:=T 4.1390592=T energy=-45.01318591113973 dipole="0.04626347370009586 -0.27233687036801235 0.05244851347126866" magmom=0.0 free_energy=-45.01318591117417 pbc="T T T"
C       12.42474355      11.83228982      10.79707661       0.02460650      -0.01060180       0.02702360       0.01018470      -0.00125322      -0.00211946       0.00000000
C       11.61290531      10.82452306      11.60099601      -0.00412653       0.00695779       0.02436400       0.00289558      -0.00526717       0.00181606       0.00000000
O       10.50346404      11.52739298      12.18208803      -0.02433143      -0.00065293      -0.05833571      -0.02161583      -0.00048594       0.01563661       0.00000000
H       11.79243138      12.30893137      10.01484872      -0.00543378       0.00520996       0.00911455      -0.00646753      -0.01485378      -0.00238983       0.00000000
H       13.29126593      11.33771372      10.30129518      -0.00741617      -0.00303060      -0.00560309      -0.01066347       0.00309404       0.00281002       0.00000000
H       12.80964932      12.63732137      11.46285045       0.01021718      -0.00551436      -0.00198559      -0.00190470      -0.00533491      -0.01075414       0.00000000
H       11.26118954       9.99327385      10.93362504       0.00317095       0.00185020      -0.00333730      -0.00024936      -0.00631295      -0.02053782       0.00000000
H       12.25897594      10.36078203      12.39439384      -0.00365022       0.00264977       0.00439111       0.00191913      -0.00558760      -0.01215928       0.00000000
H       10.01224775      10.87544296      12.73242180       0.00255715      -0.00011253       0.00071617      -0.01895736       0.00297081      -0.00948413       0.00000000
9
Lattice="23.296006118037088 0.0 0.0 0.0 22.649327160371357 0.0 0.0 0.0 22.71683509278982" Properties=species:S:1:pos:R:3:momenta:R:3:forces:R:3:magmoms:R:1 Energy:=T 4.1390592=T energy=-45.013159560448145 dipole="0.04643607568161032 -0.27215291006691955 0.053003987690707625" magmom=0.0 free_energy=-45.01315956048196 pbc="T T T"
C       12.42517773      11.83212647      10.79752775       0.02466132      -0.00966211       0.02696223      -0.01917849       0.00330949      -0.00631237       0.00000000
C       11.61285858      10.82464000      11.60141005      -0.00201439       0.00640463       0.02390058       0.00857803      -0.00758285      -0.01438515       0.00000000
O       10.50315170      11.52739323      12.18140170      -0.02799258       0.00001201      -0.05361805      -0.02602112      -0.00008959       0.02316688       0.00000000
H       11.79144097      12.30980116      10.01673450      -0.00510811       0.00269329       0.00972873      -0.00026777      -0.01801481       0.00053795       0.00000000
H       13.28980946      11.33732367      10.30041679      -0.00676057      -0.00270526      -0.00530563       0.00725423      -0.00716640      -0.00813071       0.00000000
H       12.81179157      12.63628668      11.46241627       0.01136447      -0.00466210      -0.00194876       0.00379390       0.00658556       0.00284025       0.00000000
H       11.26199245       9.99365341      10.93274055       0.00425093       0.00165743      -0.00554767       0.00133621      -0.00295303      -0.01027622       0.00000000