9
Lattice="23.296006118037088 0.0 0.0 0.0 22.649327160371357 0.0 0.0 0.0 22.71683509278982" Properties=species:S:1:pos:R:3:momenta:R:3:forces:R:3:magmoms:R:1 Energy:=T 4.1390592=T energy=-36.98167506140065 dipole="-0.015722619301697667 -0.3025389591987816 0.08530513653600344" magmom=0.0 free_energy=-36.98167506140065 pbc="T T T"
C       12.42301863      11.83504959      10.79978402       0.23135502       0.30692729       1.23705610      -0.02243443      -1.04256155      -0.77031262       0.00000000
C       11.61566276      10.82523794      11.60106685       0.75306242       0.08185352       0.52214621      -0.34953487       0.91156560       0.31326283       0.00000000
O       10.50620884      11.52787375      12.18936213      -0.41874069       0.53767272       0.31272032      -0.11471385       4.24461327      -1.01853244       0.00000000
H       11.76829915      12.30090330      10.00220888      -0.51588144       0.18862136       0.01269336      -1.08797686       0.77566968      -1.32922630       0.00000000
H       13.30990315      11.33013614      10.28954403       0.31620607      -0.25791273      -0.47179892       1.26176037      -0.63773238      -0.67969245       0.00000000
H       12.77822479      12.64928345      11.46245995      -0.31321512       0.04946192       0.21923325       0.97250520       2.05072553       1.66672210       0.00000000
H       11.24575032      10.00606933      10.93833433      -0.21306997       0.06589956       0.21165336      -0.57062298      -2.38903154      -2.01504231       0.00000000
H       12.26905168      10.34988547      12.38621448       0.23522628      -0.06902506       0.05209283       1.84454811      -1.26180099       1.65464228       0.00000000
H        9.99097670      10.86425281      12.72516966      -0.23441677      -0.16258807       0.22258713      -2.00448041      -2.65057685       2.09837942       0.00000000
9
Lattice="23.296006118037088 0.0 0.0 0.0 22.649327160371357 0.0 0.0 0.0 22.71683509278982" Properties=species:S:1:pos:R:3:momenta:R:3:forces:R:3:magmoms:R:1 Energy:=T 4.1390592=T energy=-37.155882509825986 dipole="-0.019797938694985338 -0.300496697274961 0.08281202511586681" magmom=0.0 free_energy=-37.155882509825986 pbc="T T T"
C       12.42396240      11.83619994      10.80476504       0.23739377       0.25572717       1.17389530       0.26834432      -1.04241071      -1.80172289       0.00000000
C       11.61870696      10.82566417      11.60323339       0.73778793       0.11876233       0.54438485      -0.27247313       0.59143608       0.59233945       0.00000000
O       10.50491475      11.52984427      12.19024533      -0.43691707       0.72932739       0.27761143      -0.62546497       3.55995237      -0.41117260       0.00000000
H       11.74186175      12.31102171      10.00123693      -0.55716369       0.21872273      -0.03920558      -0.59311982       0.45011911      -0.78420336       0.00000000
H       13.32681957      11.31680664      10.26574299       0.35884507      -0.27695056      -0.49313856       0.47458618      -0.13752643      -0.18930079       0.00000000
H       12.76412739      12.65414709      11.47513603      -0.26494040       0.14870548       0.29961822       0.99333923       1.99067289       1.60671649       0.00000000
H       11.23468601      10.00642174      10.94623588      -0.23983625      -0.05066482       0.11348429      -0.51935374      -2.35770581      -1.98260066       0.00000000
H       12.28271976      10.34501257      12.39073241       0.31991052      -0.12737813       0.12750985       1.60396534      -1.11445431       1.41649131       0.00000000
H        9.97715670      10.85315952      12.73852562      -0.31779215      -0.27529609       0.31034652      -1.39073342      -1.93912171       1.47536063       0.00000000
9
Lattice="23.296006118037088 0.0 0.0 0.0 22.649327160371357 0.0 0.0 0.0 22.71683509278982" Properties=species:S:1:pos:R:3:momenta:R:3:forces:R:3:magmoms:R:1 Energy:=T 4.1390592=T energy=-37.31574770559217 dipole="-0.02340267919611391 -0.29717776667189627 0.08072116438597775" magmom=0.0 free_energy=-37.31574770559217 pbc="T T T"
C       12.42496005      11.83714095      10.80938423       0.25719657       0.21070784       1.06590806       0.53806583      -0.79086761      -2.59573568       0.00000000
C       11.62169645      10.82620918      11.60551888       0.72644703       0.13314540       0.57899313      -0.18935129      -0.00572868       0.81697979       0.00000000
O       10.50352636      11.53235151      12.19106655      -0.48217194       0.88461080       0.27440489      -1.21740505       2.76350236       0.28059566       0.00000000
H       11.71400501      12.32221725       9.99838840      -0.57446891       0.23347414      -0.06501704      -0.11158383       0.15058816      -0.26689175       0.00000000
H       13.34487166      11.30314804      10.24148897       0.36565510      -0.27314278      -0.49169021      -0.19726795       0.29258691       0.24828044       0.00000000
H       12.75240704      12.66377440      11.49165696      -0.21758197       0.24011552       0.37280211       0.93519164       1.73172883       1.37347954       0.00000000
H       11.22237891      10.00113218      10.94939308      -0.26194069      -0.16055248       0.02115663      -0.38078388      -2.11714220      -1.77716872       0.00000000
H       12.30022612      10.33747280      12.39863998       0.39001073      -0.17674846       0.18880679       1.25065691      -0.89600515       1.07964401       0.00000000
H        9.96000869      10.83742593      12.75541211      -0.36900676      -0.35050651       0.36561766      -0.69482934      -1.12359876       0.77539184       0.00000000
9
Lattice="23.296006118037088 0.0 0.0 0.0 22.649327160371357 0.0 0.0 0.0 22.71683509278982" Properties=species:S:1:pos:R:3:momenta:R:3:forces:R:3:magmoms:R:1 Energy:=T 4.1390592=T energy=-37.41476852086474 dipole="-0.026500601404560706 -0.29304189417613535 0.07918196029170038" magmom=0.0 free_energy=-37.41476852086474 pbc="T T T"
C       12.42606577      11.83792313      10.81348213       0.28921954       0.18284577       0.92555513       0.76597441      -0.34373236      -3.11971961       0.00000000
C       11.62464791      10.82675305      11.60796844       0.71863039       0.11393235       0.62294194      -0.12895808      -0.77666529       0.97270467       0.00000000
O       10.50195442      11.53527540      12.19193006      -0.55522333       1.00141626       0.30408697      -1.75739542       1.99305194       0.92811884       0.00000000
H       11.68588126      12.33377315       9.99490119      -0.56832973       0.23391638      -0.06717041       0.36158386      -0.13257917       0.17920217       0.00000000
H       13.36245170      11.29018959      10.21782908       0.34269807      -0.25004208      -0.47044036      -0.73758907       0.64812032       0.61705631       0.00000000
H       12.74292460      12.67754572      11.51146461      -0.17439528       0.31508572       0.43104206       0.82345795       1.32120936       0.99816895       0.00000000
H       11.20916058       9.99077632      10.94829753      -0.27520926      -0.25481152      -0.05804480      -0.15953906      -1.72127649      -1.44807366       0.00000000
H       12.32072528      10.32778890      12.40913113       0.44127049      -0.21455324       0.23198934       0.83674447      -0.64348189       0.67883671       0.00000000
H        9.94119796      10.81900358      12.77415410      -0.38699792      -0.38668176       0.38746446      -0.03780683      -0.34953069       0.11425397       0.00000000
9
Lattice="23.296006118037088 0.0 0.0 0.0 22.649327160371357 0.0 0.0 0.0 22.71683509278982" Properties=species:S:1:pos:R:3:momenta:R:3:forces:R:3:magmoms:R:1 Energy:=T 4.1390592=T energy=-37.43079827711742 dipole="-0.029145318624709572 -0.2885279614085264 0.07825857722756535" magmom=0.0 free_energy=-37.43079827711742 pbc="T T T"
C       12.42732532      11.83863628      10.81695350       0.33117543       0.17955498       0.76568839       0.94255443       0.20972482      -3.39037736       0.00000000
C       11.62757347      10.82714093      11.61061335       0.71280007       0.05551727       0.67285932      -0.10846448      -1.60211500       1.06003179       0.00000000
O       10.50011753      11.53849977      12.19293351      -0.65179563       1.08281662       0.36276638      -2.17522371       1.32173549       1.46142536       0.00000000
H       11.65862278      12.34501179       9.99184282      -0.54128696       0.22186208      -0.04946293       0.73965231      -0.35829663       0.54188247       0.00000000
H       13.37826669      11.27878209      10.19564579       0.29639216      -0.21151481      -0.43268753      -1.14808101       0.92078795       0.92031559       0.00000000
H       12.73541268      12.69447868      11.53366088      -0.13770521       0.36730771       0.46899280       0.67063557       0.80537593       0.54726175       0.00000000
H       11.19556049       9.97630147      10.94373676      -0.27636930      -0.32752464      -0.11924559       0.11229985      -1.23974874      -1.04414617       0.00000000
H       12.34322677      10.31656515      12.42124673       0.47229265      -0.23944183       0.25533948       0.42654039      -0.37003188       0.27202834       0.00000000
H        9.92229676      10.79974481      12.79316950      -0.37538996      -0.38780390       0.37954462       0.51050618       0.30383483      -0.43676603       0.00000000
9
Lattice="23.296006118037088 0.0 0.0 0.0 22.649327160371357 0.0 0.0 0.0 22.71683509278982" Properties=species:S:1:pos:R:3:momenta:R:3:forces:R:3:magmoms:R:1 Energy:=T 4.1390592=T energy=-37.368009930774356 dipole="-0.03141974969160508 -0.28400223845655775 0.07793654561387284" magmom=0.0 free_energy=-37.368009930774356 pbc="T T T"
C       12.42877415      11.83939154      10.81974399       0.38026173       0.20379312       0.59744274       1.05633871       0.77730147      -3.46092592       0.00000000
C       11.63047724      10.82720707      11.61347114       0.70702940      -0.04215337       0.72571690      -0.12652891      -2.37523130       1.09243574       0.00000000
O       10.49795268      11.54192342      12.19415729      -0.76532477       1.13402058       0.44431381      -2.44791255       0.76339355       1.85935063       0.00000000
H       11.63313427      12.35539303       9.99008116      -0.49722435       0.19999513      -0.01626592       1.05466607      -0.53216973       0.80996668       0.00000000
H       13.39133433      11.26957803      10.17566482       0.23313360      -0.16118299      -0.38166488      -1.42793563       1.12882550       1.15742986       0.00000000
H       12.72950559      12.71333889      11.55716673      -0.10850669       0.39405093       0.48467932       0.51838744       0.28366194       0.09152523       0.00000000
H       11.18222912       9.95885991      10.93667736      -0.26393422      -0.37555556      -0.16039501       0.39408190      -0.71616762      -0.63154147       0.00000000
H       12.36674896      10.30445592      12.43401329       0.48355505      -0.25129447       0.25952982       0.03208765      -0.11263147      -0.10138919       0.00000000
H        9.90461720      10.78121311      12.81113973      -0.34012912      -0.36040904       0.34779387       0.92538674       0.81173940      -0.85618873       0.00000000
9
Lattice="23.296006118037088 0.0 0.0 0.0 22.649327160371357 0.0 0.0 0.0 22.71683509278982" Properties=species:S:1:pos:R:3:momenta:R:3:forces:R:3:magmoms:R:1 Energy:=T 4.1390592=T energy=-37.368009930774356 dipole="-0.03141974969160508 -0.28400223845655775 0.07793654561387284" magmom=0.0 free_energy=-37.368009930774356 pbc="T T T"
C       12.43044050      11.84035371      10.82184566       0.43488939       0.27652090       0.43364702       1.05633871       0.77730147      -3.46092592       0.00000000
C       11.63335088      10.82673134      11.61654797       0.69696556      -0.20241900       0.77868745      -0.12652891      -2.37523130       1.09243574       0.00000000
O       10.49540828      11.54542691      12.19568227      -0.89322477       1.13826320       0.55384246      -2.44791255       0.76339355       1.85935063       0.00000000
H       11.61042771      12.36435933       9.99048038      -0.43111740       0.16622413       0.03537078       1.05466607      -0.53216973       0.80996668       0.00000000
H       13.40078449      11.26323421      10.15866205       0.15344757      -0.09720554      -0.31342748      -1.42793563       1.12882550       1.15742986       0.00000000
H       12.72467691      12.73234463      11.58044124      -0.09166610       0.37934998       0.46505209       0.51838744       0.28366194       0.09152523       0.00000000
H       11.17015800       9.94030944      10.92856647      -0.22603135      -0.37510261      -0.16458796       0.39408190      -0.71616762      -0.63154147       0.00000000
H       12.38994605      10.29235441      12.44615243       0.46214212      -0.24082539       0.23262351       0.03208765      -0.11263147      -0.10138919       0.00000000
H        9.88949938      10.76506373      12.82670668      -0.27580273      -0.29641383       0.28642899       0.92538674       0.81173940      -0.85618873       0.00000000
9
Lattice="23.296006118037088 0.0 0.0 0.0 22.649327160371357 0.0 0.0 0.0 22.71683509278982" Properties=species:S:1:pos:R:3:momenta:R:3:forces:R:3:magmoms:R:1 Energy:=T 4.1390592=T energy=-37.11911777257103 dipole="-0.03482909076117102 -0.27668811238652674 0.07852116900849866" magmom=0.0 free_energy=-37.11911777257103 pbc="T T T"
C       12.43233071      11.84165295      10.82329039       0.48844820       0.35844404       0.27398148       1.06626698       1.65765330      -3.23069713       0.00000000
C       11.63617709      10.82555167      11.61983931       0.68565692      -0.37276657       0.83091861      -0.22432810      -3.43170603       1.05887519       0.00000000
O       10.49246866      11.54891187      12.19755764      -1.02117917       1.13378588       0.66640884      -2.58919740      -0.05939355       2.25981336       0.00000000
H       11.59112302      12.37159113       9.99352795      -0.35979525       0.13023778       0.08957174       1.48278628      -0.74060950       1.10045960       0.00000000
H       13.40628739      11.26010561      10.14512213       0.07093597      -0.03080102      -0.24305974      -1.71052839       1.36052651       1.41843530       0.00000000
H       12.72057297      12.75030555      11.60248483      -0.07726206       0.35427417       0.43549902       0.28370302      -0.58451962      -0.68907541       0.00000000
H       11.16020296       9.92230714      10.92063870      -0.18416114      -0.36623188      -0.16186452       0.82075306       0.13215640       0.03437435       0.00000000
H       12.41178349      10.28098812      12.45668184       0.43332302      -0.22638499       0.20061771      -0.60539052       0.28080017      -0.63065692       0.00000000
H        9.87774095      10.75232837      12.83905148      -0.20693583      -0.22608254       0.22014588       1.40055670       1.43735755      -1.35268356       0.00000000
9
Lattice="23.296006118037088 0.0 0.0 0.0 22.649327160371357 0.0 0.0 0.0 22.71683509278982" Properties=species:S:1:pos:R:3:momenta:R:3:forces:R:3:magmoms:R:1 Energy:=T 4.1390592=T energy=-36.9963264288787 dipole="-0.03599684654791819 -0.27408752191287394 0.07916728688842477" magmom=0.0 free_energy=-36.9963264288787 pbc="T T T"
C       12.43443506      11.84328510      10.82408631       0.53861243       0.44678403       0.12117882       0.97652183       1.93972978      -2.99173630       0.00000000
C       11.63895824      10.82368282      11.62334329       0.67327249      -0.54803264       0.88151641      -0.27999057      -3.70548287       1.00156958       0.00000000
O       10.48913868      11.55238787      12.19977373      -1.14624521       1.12300844       0.77831184      -2.50374459      -0.37948567       2.29710317       0.00000000
H       11.57536661      12.37705066       9.99920891      -0.28407752       0.09275382       0.14485552       1.60059286      -0.78581281       1.15080770       0.00000000
H       13.40769702      11.26023273      10.13497652      -0.01379210       0.03706661      -0.17191837      -1.73977008       1.40318058       1.47858556       0.00000000
H       12.71714792      12.76686772      11.62287947      -0.06498940       0.31758661       0.39395600       0.21606468      -0.90947178      -1.00264042       0.00000000
H       11.15221198       9.90462110      10.91279319      -0.14005200      -0.35171768      -0.15368546       0.97546029       0.45889089       0.29869335       0.00000000
H       12.43217224      10.27029379      12.46570210       0.39783661      -0.20894158       0.16513793      -0.83968818       0.42953104      -0.81415156       0.00000000
H        9.86933403      10.74303258      12.84815932      -0.13558300      -0.15157925       0.15093821       1.50507504       1.59656705      -1.46559265       0.00000000
9
Lattice="23.296006118037088 0.0 0.0 0.0 22.649327160371357 0.0 0.0 0.0 22.71683509278982" Properties=species:S:1:pos:R:3:momenta:R:3:forces:R:3:magmoms:R:1 Energy:=T 4.1390592=T energy=-36.90796559222121 dipole="-0.036770820798523444 -0.2722541343910799 0.07990531449551168" magmom=0.0 free_energy=-36.90796559222121 pbc="T T T"
C       12.43673553      11.84530679      10.82428140       0.58300747       0.54647012      -0.01839050       0.83133394       2.11968936      -2.69180882       0.00000000
C       11.64168316      10.82106982      11.62704842       0.65831928      -0.73292001       0.92881531      -0.32893474      -3.82350497       0.92453718       0.00000000
O       10.48543121      11.55580665      12.20233614      -1.26491599       1.09743756       0.88980833      -2.32876974      -0.66181212       2.24325942       0.00000000
H       11.56344041      12.38062975      10.00764374      -0.20385946       0.05372328       0.20134797       1.66604871      -0.80359003       1.14967935       0.00000000
H       13.40494339      11.26371765      10.12836914      -0.09831226       0.10598712      -0.09903759      -1.70206179       1.40340208       1.48926718       0.00000000
H       12.71423992      12.78125353      11.64087481      -0.05573089       0.26676109       0.33910519       0.16096051      -1.16024639      -1.23099555       0.00000000
H       11.14655526       9.88803318      10.90566246      -0.08934480      -0.32292072      -0.13386114       1.08943939       0.71377961       0.50859317       0.00000000
H       12.45055162      10.26062732      12.47277410       0.35213548      -0.18501059       0.12212376      -1.02135418       0.54498729      -0.93747252       0.00000000
H        9.86452874      10.73755737      12.85376001      -0.06075744      -0.07101658       0.07779631       1.54197312       1.68410786      -1.51289357       0.00000000
9
Lattice="23.296006118037088 0.0 0.0 0.0 22.649327160371357 0.0 0.0 0.0 22.71683509278982" Properties=species:S:1:pos:R:3:momenta:R:3:forces:R:3:magmoms:R:1 Energy:=T 4.1390592=T energy=-36.87013033504292 dipole="-0.03711185363318604 -0.27129257895832004 0.0806729847636783" magmom=0.0 free_energy=-36.87013033504292 pbc="T T T"
C       12.43920295      11.84775417      10.82393591       0.61898512       0.65269813      -0.14181763       0.63374907       2.20613006      -2.33439340       0.00000000
C       11.64434203      10.81768894      11.63093922       0.64119589      -0.92007063       0.97201429      -0.36836417      -3.79764671       0.83461302       0.00000000
O       10.48137264      11.55912566      12.20523677      -1.37315945       1.05920414       0.99719227      -2.07912297      -0.89513017       2.12963180       0.00000000
H       11.55550104      12.38228585      10.01882974      -0.12148569       0.01452810       0.25676020       1.68837790      -0.79251670       1.10681857       0.00000000
H       13.39811675      11.27056090      10.12532557      -0.17933184       0.17393713      -0.02689250      -1.59721943       1.36365945       1.44862646       0.00000000
H       12.71171710      12.79286288      11.65592438      -0.04862250       0.20493858       0.27403964       0.12850754      -1.35729136      -1.41860545       0.00000000
H       11.14350556       9.87315333      10.89974878      -0.03396266      -0.28302200      -0.10480613       1.16583353       0.91097710       0.67458545       0.00000000
H       12.46648691      10.25226499      12.47760274       0.29856970      -0.15620540       0.07423558      -1.15995278       0.62801807      -1.01263072       0.00000000
H        9.86341338      10.73611220      12.85574036       0.01437897       0.01221528       0.00383112       1.51773324       1.70526207      -1.49911843       0.00000000
9
Lattice="23.296006118037088 0.0 0.0 0.0 22.649327160371357 0.0 0.0 0.0 22.71683509278982" Properties=species:S:1:pos:R:3:momenta:R:3:forces:R:3:magmoms:R:1 Energy:=T 4.1390592=T energy=-36.88955288861382 dipole="-0.036998852902718045 -0.27131096423287054 0.08145547631929166" magmom=0.0 free_energy=-36.88955288861382 pbc="T T T"
C       12.44179764      11.85064461      10.82312160       0.64411805       0.76118735      -0.24617171       0.38971442       2.21177054      -1.91511580       0.00000000
C       11.64692692      10.81354540      11.63499763       0.62225192      -1.10276106       1.01040086      -0.40307265      -3.64187700       0.72856565       0.00000000
O       10.47700061      11.56230971      12.20845847      -1.46775020       1.01129819       1.09786548      -1.77280351      -1.05569704       1.96998504       0.00000000
H       11.55160195      12.38204547      10.03266435      -0.03933069      -0.02327343       0.30913291       1.65713978      -0.74683819       1.02590442       0.00000000
H       13.38746797      11.28066737      10.12574854      -0.25365419       0.23891402       0.04185352      -1.42933688       1.28233126       1.35085092       0.00000000
H       12.70950179      12.80122425      11.66757925      -0.04267700       0.13498797       0.20110287       0.11360531      -1.49123865      -1.55152712       0.00000000
H       11.14324569       9.86045343      10.89544938       0.02420700      -0.23436488      -0.06880708       1.20295268       1.07043919       0.79136860       0.00000000
H       12.47964645      10.24540551      12.48000816       0.23917865      -0.12392449       0.02380965      -1.25857085       0.68652601      -1.04081511       0.00000000
H        9.86592994      10.73874771      12.85413334       0.08698364       0.09482909      -0.06808854       1.43887609       1.65893907      -1.42959579       0.00000000
9
Lattice="23.296006118037088 0.0 0.0 0.0 22.649327160371357 0.0 0.0 0.0 22.71683509278982" Properties=species:S:1:pos:R:3:momenta:R:3:forces:R:3:magmoms:R:1 Energy:=T 4.1390592=T energy=-36.96387058300841 dipole="-0.036433074792898285 -0.2724205769389821 0.08228271276279592" magmom=0.0 free_energy=-36.96387058300841 pbc="T T T"
C       12.44447060      11.85397923      10.82192270       0.65627884       0.86840839      -0.32823416       0.10549760       2.15448717      -1.42663316       0.00000000
C       11.64943086      10.80867047      11.63920236       0.60179248      -1.27519317       1.04305656      -0.43007716      -3.37990754       0.60124038       0.00000000
O       10.47236129      11.56533459      12.21197719      -1.54566035       0.95716340       1.18917205      -1.39985555      -1.14878096       1.74820306       0.00000000
H       11.55166837      12.38001792      10.04895393       0.03987544      -0.05812439       0.35625458       1.56829383      -0.67236344       0.89298517       0.00000000
H       13.37339881      11.29384244      10.12940408      -0.31809559       0.29890332       0.10433480      -1.19484757       1.16055445       1.19351280       0.00000000
H       12.70755833      12.80601710      11.67552133      -0.03700518       0.05996529       0.12287565       0.11736243      -1.56383668      -1.63404379       0.00000000
H       11.14586447       9.85031509      10.89304371       0.08344099      -0.17927949      -0.02778730       1.20917518       1.17274946       0.87903979       0.00000000
H       12.48979424      10.24018888      12.47992292       0.17591559      -0.08954443      -0.02708145      -1.31762870       0.71349965      -1.03157342       0.00000000
H        9.87188971      10.74535305      12.84910531       0.15417465       0.17338612      -0.13501036       1.29727742       1.54006246      -1.29559605       0.00000000
9
Lattice="23.296006118037088 0.0 0.0 0.0 22.649327160371357 0.0 0.0 0.0 22.71683509278982" Properties=species:S:1:pos:R:3:momenta:R:3:forces:R:3:magmoms:R:1 Energy:=T 4.1390592=T energy=-37.08067538812734 dipole="-0.03544761466901307 -0.27474474021265805 0.08321425881005605" magmom=0.0 free_energy=-37.08067538812734 pbc="T T T"
C       12.44716474      11.85774653      10.82043728       0.65352858       0.97156013      -0.38442989      -0.21749380       2.04606028      -0.86177087       0.00000000
C       11.65184843      10.80311677      11.64352784       0.58011489      -1.43248684       1.06904887      -0.45267823      -3.02540889       0.45721905       0.00000000
O       10.46751092      11.56818628      12.21575947      -1.60375803       0.90069866       1.26820213      -0.96599928      -1.15057741       1.47006154       0.00000000
H       11.55548771      12.37638140      10.06738042       0.11311156      -0.08842847       0.39583857       1.41402918      -0.56167984       0.71895503       0.00000000
H       13.35647040      11.30979471      10.13591569      -0.36886005       0.35179079       0.15741747      -0.87238367       0.99312992       0.96812098       0.00000000
H       12.70589573      12.80706771      11.67955316      -0.03090070      -0.01716682       0.04197908       0.13122463      -1.57713896      -1.66022796       0.00000000
H       11.15137680       9.84298312      10.89274158       0.14218450      -0.12032668       0.01647055       1.18297917       1.22792799       0.92322940       0.00000000
H       12.49678896      10.23667964      12.47736914       0.11063111      -0.05451369      -0.07656176      -1.34088760       0.71302270      -0.98336485       0.00000000
H        9.88095385      10.75564374      12.84097694       0.21264939       0.24394001      -0.19368598       1.08393231       1.33303429      -1.09379380       0.00000000
9
Lattice="23.296006118037088 0.0 0.0 0.0 22.649327160371357 0.0 0.0 0.0 22.71683509278982" Properties=species:S:1:pos:R:3:momenta:R:3:forces:R:3:magmoms:R:1 Energy:=T 4.1390592=T energy=-37.21792059728738 dipole="-0.03410130962351108 -0.27839535998965603 0.08431929551867241" magmom=0.0 free_energy=-37.21792059728738 pbc="T T T"
C       12.44981521      11.86192473      10.81877880       0.63370674       1.06809399      -0.41067343      -0.58969166       1.88499394      -0.20691911       0.00000000
C       11.65417508      10.79695548      11.64794513       0.55726053      -1.57037615       1.08759666      -0.47799728      -2.58972258       0.29808466       0.00000000
O       10.46251491      11.57086449      12.21976340      -1.63858683       0.84700842       1.33171492      -0.45230014      -1.03579771       1.11630770       0.00000000
H       11.56269080      12.37140080      10.08752736       0.17686632      -0.11227902       0.42529450       1.18219385      -0.40956309       0.48054986       0.00000000
H       13.33745437      11.32812353      10.14474400      -0.40144782       0.39502710       0.19773217      -0.45465647       0.76754007       0.67357530       0.00000000
H       12.70454714      12.80434424      11.67961208      -0.02378879      -0.09367811      -0.03898870       0.15838679      -1.53855549      -1.63694398       0.00000000
H       11.15971998       9.83858957      10.89464872       0.19890875      -0.06001532       0.06186893       1.12694705       1.22807289       0.92548456       0.00000000
H       12.50057495      10.23487666      12.47246218       0.04533142      -0.02014251      -0.12258953      -1.31824792       0.68664156      -0.89097936       0.00000000
H        9.89261183      10.76912436      12.83023113       0.25874892       0.30159905      -0.24036340       0.79333390       1.01495877      -0.80700519       0.00000000
9
Lattice="23.296006118037088 0.0 0.0 0.0 22.649327160371357 0.0 0.0 0.0 22.71683509278982" Properties=species:S:1:pos:R:3:momenta:R:3:forces:R:3:magmoms:R:1 Energy:=T 4.1390592=T energy=-37.34581387328422 dipole="-0.032443533967248216 -0.2834395748275116 0.08562853017150868" magmom=0.0 free_energy=-37.34581387328422 pbc="T T T"
C       12.45234725      11.86648149      10.81707876       0.59466477       1.15536708      -0.40272545      -1.00017620       1.66894259       0.53057707       0.00000000
C       11.65640575      10.79027410      11.65242229       0.53284164      -1.68459534       1.09776532      -0.51638925      -2.06151397       0.11600361       0.00000000
O       10.45745071      11.57338654      12.22393563      -1.64587317       0.80165409       1.37508697       0.15558563      -0.81112235       0.64988999       0.00000000
H       11.57272286      12.36544011      10.10882425       0.22751239      -0.12803920       0.44171023       0.88021630      -0.23222314       0.18793186       0.00000000
H       13.31735036      11.34828906      10.15518417      -0.41125283       0.42576559       0.22146995       0.05537693       0.48419358       0.29307505       0.00000000
H       12.70357757      12.79793903      11.67575381      -0.01503007      -0.16681884      -0.11735446       0.19828598      -1.43988296      -1.55426815       0.00000000
H       11.17075993       9.83713478      10.89877054       0.25241398      -0.00092322       0.10659205       1.05189406       1.17827691       0.89573153       0.00000000