9
Lattice="23.296006118037088 0.0 0.0 0.0 22.649327160371357 0.0 0.0 0.0 22.71683509278982" Properties=species:S:1:pos:R:3:momenta:R:3:forces:R:3:magmoms:R:1 Energy:=T 4.1390592=T energy=-35.69735564708218 dipole="-0.06927319352900621 -0.24718346982904513 0.05563566821403679" magmom=0.0 free_energy=-35.69735564708218 pbc="T T T"
C       12.40116137      11.85169476      10.74079907       0.29268719       0.21681693      -1.01166964       1.72151734      -1.09205847      -1.07004026       0.00000000
C       11.49731113      10.84294634      11.49255295      -3.72588341       1.70274903      -5.44658113       1.96065499      -5.09839646       2.18525136       0.00000000
O       10.45263595      11.53152771      12.22333077      -2.08970479      -0.07483552       1.18695649      -0.31754096       1.95446223      -1.43339797       0.00000000
H       11.77978177      12.35417845       9.81934834       0.26653118      -0.09685756       0.21861165       0.45679015       0.09396633       0.39457256       0.00000000
H       13.33433995      11.09834933      10.28877038      -0.31486213       0.14710421       0.11444729      -1.15518395       1.42412374       0.44927780       0.00000000
H       12.84354226      12.60720707      11.57027364      -0.11565831      -0.27158658      -0.34648538      -0.04982344       0.18282144      -0.53352145       0.00000000
H       11.33159726       9.65484060      10.81755363       0.07782047       0.20922112       0.08491324      -0.22268724       2.46294688       0.92068494       0.00000000
H       12.37842579      10.03349511      12.73977913       1.91512231      -1.72986987       2.47625110      -1.19479841       1.63606915      -2.54510775       0.00000000
H       10.10605868      10.80523510      12.86543823       0.19247269       0.31189998       0.00546310      -1.18135862      -1.53633419       1.55252961       0.00000000
9
Lattice="23.296006118037088 0.0 0.0 0.0 22.649327160371357 0.0 0.0 0.0 22.71683509278982" Properties=species:S:1:pos:R:3:momenta:R:3:forces:R:3:magmoms:R:1 Energy:=T 4.1390592=T energy=-35.11151635734498 dipole="-0.1164726376591276 -0.2232094339237757 0.008184328377486696" magmom=0.0 free_energy=-35.11151635734501 pbc="T T T"
C       12.40253105      11.85247168      10.73655486       0.36980059       0.15560929      -1.06087321       1.41869661      -1.40044016      -0.93362877       0.00000000
C       11.48227272      10.84939700      11.47050108      -3.63781671       1.46530341      -5.34059624       1.62559941      -4.57086968       2.13066777       0.00000000
O       10.44619707      11.53144531      12.22686641      -2.09078019       0.02976411       1.10187459       0.27374818       2.30504639      -2.03130888       0.00000000
H       11.79331470      12.34957162       9.83047201       0.28345241      -0.08570684       0.22739693       0.23227655       0.36011359      -0.03681799       0.00000000
H       13.31761653      11.10722074      10.29488423      -0.36498354       0.21198531       0.13298848      -0.88586108       1.21796598       0.30575702       0.00000000
H       12.83784735      12.59419312      11.55275324      -0.11374608      -0.25456757      -0.36330585       0.12769359       0.51022707      -0.15144218       0.00000000
H       11.33512251       9.66798153      10.82279251       0.06631094       0.32614789       0.13056491      -0.24600407       2.29854764       0.93834341       0.00000000
H       12.47030803       9.95116703      12.85738600       1.85709700      -1.65448904       2.35755682      -1.16810935       1.43359044      -2.28836310       0.00000000
H       10.11402317      10.81859380      12.86756200       0.12939513       0.22262898       0.09286384      -1.38728731      -2.09896111       2.00660524       0.00000000
9
Lattice="23.296006118037088 0.0 0.0 0.0 22.649327160371357 0.0 0.0 0.0 22.71683509278982" Properties=species:S:1:pos:R:3:momenta:R:3:forces:R:3:magmoms:R:1 Energy:=T 4.1390592=T energy=-36.939903163174506 dipole="-0.009489151781227508 -0.30187672327680015 0.08984339264722657" magmom=0.0 free_energy=-36.939903163174506 pbc="T T T"
C       12.42030057      11.83643075      10.79368306      -0.44615609       0.64367608      -0.24103957      -0.54341778      -1.08415794      -0.20296931       0.00000000
C       11.61272468      10.82614127      11.59989421       0.03725933       0.29249198       0.23210952      -0.23867932       0.49306273       0.18051482       0.00000000
O       10.50853607      11.52911851      12.19131754       0.34330480       0.94719683       0.94181856       0.04553118       4.40899243      -1.33967953       0.00000000
H       11.78795910      12.29418372       9.98692144      -0.11654850       0.05402391      -0.30647398      -1.25761672       0.91064384      -1.54951425       0.00000000
H       13.29955476      11.33714404      10.32074866       0.12094043      -0.12577158       0.15751773       1.95907386      -1.11370083      -1.13269391       0.00000000
H       12.80065585      12.63925803      11.44346828       0.14765019      -0.14991696      -0.16610986       0.99255863       2.31060355       1.84753208       0.00000000
H       11.26301543       9.99483551      10.91285809       0.14477434      -0.15345905      -0.30080506      -0.42822442      -1.93281128      -1.59099184       0.00000000
H       12.26930393      10.35350717      12.39984444       0.23532061       0.00899766       0.32430141       1.63756764      -1.11148868       1.34794991       0.00000000
H       10.00015367      10.87263382      12.72849322      -0.05175719       0.00291503       0.29702085      -2.23609084      -2.91558784       2.35172512       0.00000000
9
Lattice="23.296006118037088 0.0 0.0 0.0 22.649327160371357 0.0 0.0 0.0 22.71683509278982" Properties=species:S:1:pos:R:3:momenta:R:3:forces:R:3:magmoms:R:1 Energy:=T 4.1390592=T energy=-34.624779536515774 dipole="-0.1586490838075297 -0.19975083898836313 -0.03303948897166368" magmom=0.0 free_energy=-34.62477953661527 pbc="T T T"
C       12.40418563      11.85296735      10.73212316       0.42927931       0.07977213      -1.10172827       1.00339721      -1.68780256      -0.73007208       0.00000000
C       11.46756077      10.85492971      11.44887711      -3.56670361       1.25737674      -5.23774424       1.27026990      -3.89632482       2.05767388       0.00000000
O       10.43979947      11.53171044      12.23009580      -2.06773635       0.14571962       0.99258077       0.66464370       2.41689632      -2.41935667       0.00000000
H       11.80740346      12.34582654       9.84150757       0.28894615      -0.06128779       0.21439809      -0.00856035       0.63427932      -0.49252127       0.00000000
H       13.29877326      11.11900674      10.30172976      -0.39889832       0.26427747       0.14337387      -0.49521716       0.91147647       0.11715680       0.00000000
H       12.83245801      12.58240013      11.53487044      -0.10257262      -0.22106774      -0.36079745       0.32731213       0.85395368       0.25358945       0.00000000
H       11.33805908       9.68662286      10.83027684       0.05353973       0.43234645       0.17570553      -0.27406547       2.02607250       0.89987385       0.00000000
H       12.55939500       9.87226951      12.96951684       1.80236623      -1.59009848       2.25297050      -1.06063850       1.18852362      -1.97060359       0.00000000
H       10.11866790      10.82692971      12.87448756       0.05940638       0.11202143       0.19701327      -1.46279614      -2.40520244       2.23457018       0.00000000
9
Lattice="23.296006118037088 0.0 0.0 0.0 22.649327160371357 0.0 0.0 0.0 22.71683509278982" Properties=species:S:1:pos:R:3:momenta:R:3:forces:R:3:magmoms:R:1 Energy:=T 4.1390592=T energy=-37.117751806158644 dipole="-0.007845820840062802 -0.2986599076929947 0.09134931953424787" magmom=0.0 free_energy=-37.117751806158644 pbc="T T T"
C       12.41842165      11.83895390      10.79267705      -0.47405693       0.58799235      -0.26609340      -0.59276062      -1.18339608      -0.81727364       0.00000000
C       11.61285307      10.82738679      11.60086144       0.02998201       0.30135186       0.24466619      -0.05766795      -0.13227063       0.33081849       0.00000000
O       10.50959338      11.53235857      12.19410773       0.33521895       1.14899270       0.88560233      -0.37480313       3.80854372      -0.94955874       0.00000000
H       11.78077569      12.29790554       9.97013492      -0.17018213       0.09343832      -0.37289676      -0.92645303       0.69439055      -1.15535539       0.00000000
H       13.30779144      11.32968345      10.32706825       0.20982498      -0.17688896       0.10479112       1.66048478      -0.96790230      -1.01444029       0.00000000
H       12.80903750      12.63471815      11.43758536       0.19758748      -0.03203430      -0.07271867       1.04098904       2.48981665       1.95554603       0.00000000
H       11.26955700       9.98504582      10.89629815       0.12729873      -0.23853367      -0.36911414      -0.28341767      -1.53159902      -1.19069225       0.00000000
H       12.28272895      10.35261568      12.41725842       0.30625750      -0.03919664       0.37858433       1.25112601      -0.85108039       0.86256058       0.00000000
H        9.99495640      10.86928736      12.74577899      -0.15025739      -0.12662430       0.40158922      -1.77503663      -2.35951553       1.90651062       0.00000000
9
Lattice="23.296006118037088 0.0 0.0 0.0 22.649327160371357 0.0 0.0 0.0 22.71683509278982" Properties=species:S:1:pos:R:3:momenta:R:3:forces:R:3:magmoms:R:1 Energy:=T 4.1390592=T energy=-34.23308999009364 dipole="-0.195512884216364 -0.17719049251402175 -0.06624191899104284" magmom=0.0 free_energy=-34.23308999267233 pbc="T T T"
C       12.40604173      11.85312406      10.72754484       0.46559504      -0.00799009      -1.13094937       0.47545242      -1.88605239      -0.45986996       0.00000000
C       11.45310392      10.85967993      11.42766638      -3.51247523       1.08492951      -5.13726499       0.93801906      -3.12607527       2.03404416       0.00000000
O       10.43350207      11.53233997      12.23296043      -2.02936989       0.25972886       0.87123761       0.89771622       2.22579085      -2.52198221       0.00000000
H       11.82147174      12.34359929       9.85136454       0.28286268      -0.02366752       0.17924965      -0.23917091       0.89769414      -0.93879403       0.00000000
H       13.27874494      11.13297389      10.30885564      -0.41145742       0.29947105       0.14329194      -0.01621503       0.52167729      -0.12049315       0.00000000
H       12.82785192      12.57265065      11.51759448      -0.08186226      -0.17117803      -0.33854720       0.51605582       1.17765639       0.65248578       0.00000000
H       11.34033982       9.71011255      10.83991455       0.03919667       0.52175575       0.21699198      -0.31001307       1.61485524       0.78139390       0.00000000
H       12.64594388       9.79621611      13.07693205       1.75349245      -1.53705656       2.16363007      -0.92960057       0.97145053      -1.66751924       0.00000000
H       10.11981217      10.82950999      12.88676043      -0.01031616      -0.00559115       0.30486042      -1.37644695      -2.38421936       2.15718400       0.00000000
9
Lattice="23.296006118037088 0.0 0.0 0.0 22.649327160371357 0.0 0.0 0.0 22.71683509278982" Properties=species:S:1:pos:R:3:momenta:R:3:forces:R:3:magmoms:R:1 Energy:=T 4.1390592=T energy=-37.32185212035627 dipole="-0.006374846404701834 -0.29350593183690926 0.09266810650945914" magmom=0.0 free_energy=-37.32185212035627 pbc="T T T"
C       12.41642370      11.84123940      10.79150692      -0.49925204       0.53296424      -0.31930667      -0.43323539      -1.05746005      -1.34967831       0.00000000
C       11.61296987      10.82860575      11.60189511       0.03206372       0.27707573       0.26385926       0.14243955      -0.85630223       0.45076214       0.00000000
O       10.51059417      11.53617283      12.19675475       0.30210907       1.31647712       0.85386407      -0.97349822       3.01176052      -0.34288751       0.00000000
H       11.77137529      12.30328904       9.95058364      -0.20632612       0.12142733      -0.41860204      -0.54540350       0.44537864      -0.70585630       0.00000000
H       13.32000165      11.31990667      10.33096028       0.28082062      -0.21882728       0.05952282       1.23060117      -0.73991118      -0.82897664       0.00000000
H       12.81991023      12.63613637      11.43638204       0.24689461       0.08811184       0.02077628       0.96689711       2.40277720       1.85175749       0.00000000
H       11.27542036       9.97159103      10.87688889       0.11729401      -0.30224839      -0.41651936      -0.12399485      -1.06299329      -0.73974387       0.00000000
H       12.29914791      10.34968756      12.43673649       0.35724204      -0.07436817       0.40808906       0.82506764      -0.58117554       0.33893186       0.00000000
H        9.98551148      10.86029461      12.76762703      -0.22171069      -0.22359141       0.47944663      -1.13468601      -1.58918165       1.26400031       0.00000000
9
Lattice="23.296006118037088 0.0 0.0 0.0 22.649327160371357 0.0 0.0 0.0 22.71683509278982" Properties=species:S:1:pos:R:3:momenta:R:3:forces:R:3:magmoms:R:1 Energy:=T 4.1390592=T energy=-33.91163778880055 dipole="-0.22734806984570782 -0.15547720486614522 -0.09113714727335004" magmom=0.0 free_energy=-33.91163796528989 pbc="T T T"
C       12.40799331      11.85290200      10.72287416       0.47355005      -0.10180891      -1.14552825      -0.15150830      -1.93443980      -0.13381167       0.00000000
C       11.43883545      10.86380235      11.40686414      -3.47245319       0.95332473      -5.03493088       0.69175947      -2.23313746       2.13320812       0.00000000
O       10.42734001      11.53330507      12.23544482      -1.98330947       0.35786772       0.75238051       0.97795721       1.77062172      -2.31811933       0.00000000
H       11.83496769      12.34352021       9.85897498       0.26625860       0.02636070       0.12350086      -0.43698069       1.13955604      -1.33140946       0.00000000
H       13.25867782      11.14818940      10.31569318      -0.39834299       0.31366779       0.13050120       0.55026104       0.05644281      -0.40037171       0.00000000
H       12.82448075      12.56571928      11.50187991      -0.05273841      -0.10669498      -0.29755056       0.66992625       1.44822361       1.01698021       0.00000000
H       11.34187870       9.73746658      10.85142213       0.02309117       0.58686275       0.25048499      -0.34583543       1.03643328       0.58250919       0.00000000
H       12.73026823       9.72248739      13.18035690       1.71089445      -1.49377861       2.08840136      -0.80507628       0.79091496      -1.39594613       0.00000000
H       10.11766261      10.82638487      12.90419541      -0.07249414      -0.11474676       0.40164877      -1.15556590      -2.06081820       1.78423319       0.00000000
9
Lattice="23.296006118037088 0.0 0.0 0.0 22.649327160371357 0.0 0.0 0.0 22.71683509278982" Properties=species:S:1:pos:R:3:momenta:R:3:forces:R:3:magmoms:R:1 Energy:=T 4.1390592=T energy=-37.48701745939187 dipole="-0.00502285860530559 -0.28701746223846974 0.09394454588041985" magmom=0.0 free_energy=-37.48701745939187 pbc="T T T"
C       12.41433873      11.84331253      10.79006574      -0.51208831       0.48888932      -0.39486351      -0.08948344      -0.73735950      -1.72714877       0.00000000
C       11.61311529      10.82965274      11.60301930       0.04388704       0.21747102       0.28802775       0.33902996      -1.57092209       0.53342749       0.00000000
O       10.51144820      11.54044117      12.19935008       0.23897400       1.44401809       0.85332138      -1.59748962       2.18196581       0.32078818       0.00000000
H       11.76066975      12.30973832       9.92934325      -0.22414673       0.13741904      -0.44182776      -0.18028762       0.20583624      -0.23994196       0.00000000
H       13.33515667      11.30835930      10.33286859       0.32922361      -0.24857333       0.02405401       0.74046677      -0.47140797      -0.61538484       0.00000000
H       12.83309673      12.64330441      11.43960995       0.28987941       0.19818449       0.10444029       0.78353073       2.07960360       1.55521018       0.00000000
H       11.28098699       9.95559251      10.85570944       0.11515901      -0.34242507      -0.44142677       0.03705361      -0.57308261      -0.27453656       0.00000000
H       12.31754125      10.34536870      12.45702562       0.38745303      -0.09646699       0.41297327       0.40518502      -0.31873304      -0.14003699       0.00000000
H        9.97335128      10.84749897      12.79249981      -0.26108983      -0.28194367       0.52399084      -0.46891237      -0.78704009       0.54993019       0.00000000
9
Lattice="23.296006118037088 0.0 0.0 0.0 22.649327160371357 0.0 0.0 0.0 22.71683509278982" Properties=species:S:1:pos:R:3:momenta:R:3:forces:R:3:magmoms:R:1 Energy:=T 4.1390592=T energy=-33.62672177436091 dipole="-0.25414805039114086 -0.1345942470665993 -0.10827788452391034" magmom=0.0 free_energy=-33.626726380216176 pbc="T T T"
C       12.40991446      11.85229146      10.71817661       0.44898607      -0.19329898      -1.14319768      -0.84878652      -1.79122103       0.22871713       0.00000000
C       11.42470591      10.86747630      11.38649030      -3.44399511       0.86955850      -4.92540531       0.46711100      -1.17799281       2.32689430       0.00000000
O       10.42132540      11.53453712      12.23757972      -1.93629145       0.42966286       0.64951115       0.93671193       1.15302172      -1.87092904       0.00000000
H       11.84741794      12.34616807       9.86339937       0.24130838       0.08685077       0.05083595      -0.57904286       1.32372190      -1.62765281       0.00000000
H       13.23992747      11.16353999      10.32157264      -0.35560848       0.30329662       0.10318986       1.18997483      -0.47877781      -0.71180090       0.00000000
H       12.82271270      12.56225350      11.48859896      -0.01741241      -0.03126977      -0.24149355       0.76861954       1.62324378       1.26577454       0.00000000
H       11.34258999       9.76730078      10.86432365       0.00500602       0.61875476       0.27213258      -0.39062860       0.26227389       0.29902473       0.00000000
H       12.81266604       9.65065132      13.28044126       1.67415467      -1.45869066       2.02558193      -0.69104202       0.63793745      -1.16218824       0.00000000
H       10.11274780      10.81832822      12.92590004      -0.12205689      -0.20286278       0.47484257      -0.86272951      -1.52744435       1.19636637       0.00000000
9
Lattice="23.296006118037088 0.0 0.0 0.0 22.649327160371357 0.0 0.0 0.0 22.71683509278982" Properties=species:S:1:pos:R:3:momenta:R:3:forces:R:3:magmoms:R:1 Energy:=T 4.1390592=T energy=-37.57153655621209 dipole="-0.0037694325821883423 -0.27999008625766986 0.09526726480292055" magmom=0.0 free_energy=-37.57153655621209 pbc="T T T"
C       12.41223579      11.84523757      10.78827770      -0.50497297       0.46360512      -0.48482955       0.37923472      -0.29226457      -1.93645042       0.00000000
C       11.61332879      10.83038425      11.60425062       0.06489577       0.12493269       0.31540882       0.51648811      -2.19742626       0.58158516       0.00000000
O       10.51206137      11.54503848      12.20199378       0.14721522       1.53242039       0.88378213      -2.13911344       1.41795471       0.91963486       0.00000000
H       11.74953279      12.31668016       9.90752868      -0.22464379       0.14213981      -0.44320437       0.16004625      -0.01359702       0.18388355       0.00000000
H       13.35208363      11.29568386      10.33330428       0.35328738      -0.26473750      -0.00094962       0.23945852      -0.18682991      -0.40281388       0.00000000
H       12.84815821      12.65544893      11.44655947       0.32150710       0.28840399       0.17028769       0.50441267       1.59431718       1.12622934       0.00000000
H       11.28664230       9.93822261      10.83387301       0.11973260      -0.35960945      -0.44397195       0.14919217      -0.12669979       0.17089169       0.00000000
H       12.33690419      10.34028711      12.47697965       0.39831156      -0.10655870       0.39533618       0.03699625      -0.09222196      -0.57818111       0.00000000
H        9.96006897      10.83281995      12.81868856      -0.26972931      -0.30313932       0.53534120       0.11709524      -0.07608981      -0.08772063       0.00000000
9
Lattice="23.296006118037088 0.0 0.0 0.0 22.649327160371357 0.0 0.0 0.0 22.71683509278982" Properties=species:S:1:pos:R:3:momenta:R:3:forces:R:3:magmoms:R:1 Energy:=T 4.1390592=T energy=-37.56427548574267 dipole="-0.0025804881420985475 -0.273236815968633 0.09664274072051582" magmom=0.0 free_energy=-37.56427548574267 pbc="T T T"
C       12.41020902      11.84710393      10.78610076      -0.47363826       0.46120468      -0.58161511       0.89677789       0.19451387      -2.00485333       0.00000000
C       11.61364601      10.83067445      11.60559874       0.09394011       0.00487983       0.34444683       0.66625612      -2.69136902       0.60090113       0.00000000
O       10.51235204      11.54984957      12.20477612       0.03226969       1.58577100       0.94053017      -2.54170086       0.75458973       1.39126016       0.00000000
H       11.73877881      12.32358947       9.88615415      -0.20973882       0.13681289      -0.42498606       0.44691432      -0.20332577       0.55800282       0.00000000
H       13.36958360      11.28256133      10.33277605       0.35358647      -0.26715831      -0.01604751      -0.22727911       0.08824982      -0.21200256       0.00000000
H       12.86442675      12.67140862      11.45620404       0.33821196       0.35276363       0.21377451       0.17584299       1.02653726       0.64464174       0.00000000
H       11.29265462       9.92054951      10.81244554       0.12916711      -0.35670167      -0.42650209       0.23500009       0.24511043       0.54051652       0.00000000
H       12.35635567      10.33498483      12.49555009       0.39216082      -0.10648875       0.35840782      -0.28746696       0.09507057      -0.92561653       0.00000000
H        9.94706686      10.81795884      12.84466740      -0.25247972      -0.29244325       0.51790017       0.58534294       0.51165547      -0.62251322       0.00000000
9
Lattice="23.296006118037088 0.0 0.0 0.0 22.649327160371357 0.0 0.0 0.0 22.71683509278982" Properties=species:S:1:pos:R:3:momenta:R:3:forces:R:3:magmoms:R:1 Energy:=T 4.1390592=T energy=-37.56427548574267 dipole="-0.0025804881420985475 -0.273236815968633 0.09664274072051582" magmom=0.0 free_energy=-37.56427548574267 pbc="T T T"
C       12.40838761      11.84904909      10.78351800      -0.42922982       0.48092955      -0.65702223       0.89677789       0.19451387      -2.00485333       0.00000000
C       11.61398155      10.83105735      11.60752625       0.13780414      -0.18435455       0.34413194       0.66625612      -2.69136902       0.60090113       0.00000000
O       10.51157165      11.55472887      12.20833723      -1.19821341       1.54736583       1.93308275      -2.54170086       0.75458973       1.39126016       0.00000000
H       11.73357611      12.32398260       9.87492355       0.32088342      -0.55884988       0.60508283       0.44691432      -0.20332577       0.55800282       0.00000000
H       13.38917893      11.26852215      10.33088085       0.45160172      -0.31105533      -0.06390155      -0.22727911       0.08824982      -0.21200256       0.00000000
H       12.87951630      12.68786769      11.46548418       0.19668740       0.21630785       0.06522470       0.17584299       1.02653726       0.64464174       0.00000000
H       11.29963596       9.90343545      10.79243525       0.16173975      -0.34059607      -0.38861541       0.23500009       0.24511043       0.54051652       0.00000000
H       12.37534276      10.32990552      12.51223251       0.37726598      -0.09378435       0.31615632      -0.28746696       0.09507057      -0.92561653       0.00000000
H        9.93738871      10.80695801      12.86680989      -0.08872232      -0.08304553       0.32296625       0.58534294       0.51165547      -0.62251322       0.00000000
9
Lattice="23.296006118037088 0.0 0.0 0.0 22.649327160371357 0.0 0.0 0.0 22.71683509278982" Properties=species:S:1:pos:R:3:momenta:R:3:forces:R:3:magmoms:R:1 Energy:=T 4.1390592=T energy=-37.56427548574267 dipole="-0.0025804881420985475 -0.273236815968633 0.09664274072051582" magmom=0.0 free_energy=-37.56427548574267 pbc="T T T"
C       12.40669874      11.85103701      10.78072758      -0.40767613       0.48333398      -0.69333281       0.89677789       0.19451387      -2.00485333       0.00000000
C       11.61477298      10.82916678      11.60841308       0.17385493      -0.36354295       0.29517498       0.66625612      -2.69136902       0.60090113       0.00000000
O       10.50499552      11.55934973      12.21664441      -5.34953088       1.29582264       5.35680805      -2.54170086       0.75458973       1.39126016       0.00000000
H       11.77004805      12.26913102       9.94511788       2.53564570      -3.51242282       4.94306933       0.44691432      -0.20332577       0.55800282       0.00000000
H       13.41359100      11.25224981      10.32654901       0.43257758      -0.30687264      -0.07452136      -0.22727911       0.08824982      -0.21200256       0.00000000
H       12.88359342      12.69248726      11.46256001      -0.27266266      -0.33520231      -0.48041221       0.17584299       1.02653726       0.64464174       0.00000000
H       11.30841573       9.88735932      10.77457599       0.20422502      -0.31774051      -0.34105270       0.23500009       0.24511043       0.54051652       0.00000000
H       12.39311924      10.32584580      12.52635869       0.36312598      -0.08693516       0.27022603      -0.28746696       0.09507057      -0.92561653       0.00000000
H        9.93842111      10.80986627      12.87613961       0.23329330       0.34116056      -0.06387503       0.58534294       0.51165547      -0.62251322       0.00000000
9
Lattice="23.296006118037088 0.0 0.0 0.0 22.649327160371357 0.0 0.0 0.0 22.71683509278982" Properties=species:S:1:pos:R:3:momenta:R:3:forces:R:3:magmoms:R:1 Energy:=T 4.1390592=T energy=-33.3510837279631 dipole="-0.2756859096070147 -0.11459370928593328 -0.11893309317177526" magmom=0.0 free_energy=-33.35114088164885 pbc="T T T"
C       12.41166515      11.85132119      10.71352500       0.38980902      -0.27280263      -1.12300616      -1.56102254      -1.44632851       0.59352263       0.00000000
C       11.41067018      10.87091367      11.36658376      -3.42488422       0.84099414      -4.80430412       0.31112329       0.01479435       2.60459135       0.00000000
O       10.41545202      11.53594301      12.23943254      -1.89331417       0.46992026       0.57150936       0.81340978       0.48634097      -1.30546149       0.00000000
H       11.85848255      12.35198358       9.86392881       0.21125741       0.15445670      -0.03314115      -0.64469320       1.42932836      -1.79206445       0.00000000
H       13.22402471      11.17774486      10.32574876      -0.28157639       0.26621007       0.06073083       1.82476152      -1.03146147      -1.01721676       0.00000000
H       12.82278395      12.56267213      11.47834700       0.02101209       0.04988199      -0.17650909       0.79610418       1.68142010       1.38052405       0.00000000
H       11.34236652       9.79776260      10.87794074      -0.01512067       0.60802704       0.27786461      -0.42897059      -0.69912809      -0.06560487       0.00000000
H       12.89341020       9.58034182      13.37774453       1.64311432      -1.43075460       1.97343640      -0.57298352       0.49967542      -0.96128306       0.00000000
H       10.10576849      10.80661642      12.95046757      -0.15632853      -0.26274927       0.51670408      -0.53288105      -0.91125443       0.50831886       0.00000000
9
Lattice="23.296006118037088 0.0 0.0 0.0 22.649327160371357 0.0 0.0 0.0 22.71683509278982" Properties=species:S:1:pos:R:3:momenta:R:3:forces:R:3:magmoms:R:1 Energy:=T 4.1390592=T energy=-33.07837971747376 dipole="-0.291720385908513 -0.09566514934211445 -0.12488970588325707" magmom=0.0 free_energy=-33.07877831183721 pbc="T T T"
C       12.41310235      11.85006046      10.70899258       0.29743580      -0.33125883      -1.08604323      -2.20060179      -0.93412594       0.91168265       0.00000000
C       11.39669693      10.87435402      11.34720030      -3.41285348       0.87415862      -4.66768206       0.17879291       1.33573029       2.95893505       0.00000000
O       10.40970127      11.53742223      12.24108854      -1.85655265       0.47834312       0.52094551       0.68359369      -0.14334497      -0.75360103       0.00000000
H       11.86800442      12.36121947       9.86016985       0.18046529       0.22482013      -0.12121765      -0.60922420       1.43601294      -1.79458901       0.00000000
H       13.21248859      11.18948146      10.32749070      -0.17820355       0.20368412       0.00426719       2.38478971      -1.51472169      -1.28209690       0.00000000
H       12.82476027      12.56711437      11.47139862       0.05891444       0.13039206      -0.10926543       0.74735585       1.59711267       1.35777377       0.00000000
H       11.34111652       9.82655142      10.89140083      -0.03702459       0.54642007       0.26455747      -0.46300159      -1.80963233      -0.47628901       0.00000000