9
Lattice="23.296006118037088 0.0 0.0 0.0 22.649327160371357 0.0 0.0 0.0 22.71683509278982" Properties=species:S:1:pos:R:3:momenta:R:3:forces:R:3:magmoms:R:1 Energy:=T 4.1390592=T energy=-36.7851596805511 dipole="-0.018212388069190347 -0.3056033326985832 0.08365195774708452" magmom=0.0 free_energy=-36.7851596805511 pbc="T T T"
C       12.42277095      11.83531229      10.79581508       0.16640562       0.37288866       0.30289205      -0.20067783      -0.97264419       0.71462065       0.00000000
C       11.61673869      10.82387783      11.60447449       1.02100432      -0.25362706       1.35408730      -0.15344913       0.79517647       0.25555321       0.00000000
O       10.51212841      11.53080253      12.19069583       1.53124669       1.51389108       0.72729647       0.76709288       5.14666211      -1.82831909       0.00000000
H       11.79526681      12.27956083      10.00380696       0.02133685      -0.23755845       0.02739551      -1.75025305       1.25826087      -2.06615618       0.00000000
H       13.28663095      11.34420160      10.30150233      -0.13815787       0.01695923      -0.23852850       2.20946162      -1.19994747      -1.17489743       0.00000000
H       12.78944469      12.64853742      11.45988772      -0.08545765       0.03136544       0.16301400       0.86993724       1.93730582       1.52716489       0.00000000
H       11.25085353      10.00700619      10.92329219      -0.10667382       0.09016435      -0.09162112      -0.50309572      -2.18391974      -1.79315296       0.00000000
H       12.27444976      10.34563854      12.40035721       0.34034235      -0.15236139       0.33478694       1.61351081      -1.10595074       1.34638438       0.00000000
H       10.00556760      10.88197488      12.70304179       0.04217076       0.17573247      -0.21095671      -2.93597895      -3.68513891       2.93750975       0.00000000
9
Lattice="23.296006118037088 0.0 0.0 0.0 22.649327160371357 0.0 0.0 0.0 22.71683509278982" Properties=species:S:1:pos:R:3:momenta:R:3:forces:R:3:magmoms:R:1 Energy:=T 4.1390592=T energy=-36.86184738621937 dipole="-0.025144057484513056 -0.3058668698146945 0.07884574276142754" magmom=0.0 free_energy=-36.86184738621937 pbc="T T T"
C       12.42343123      11.83673938      10.79712537       0.16230863       0.32539902       0.34166134       0.03384036      -0.96122998       0.86414326       0.00000000
C       11.62089821      10.82292058      11.61003707       1.01938835      -0.22416435       1.37144314       0.08764346       0.40460434       0.45121183       0.00000000
O       10.51688683      11.53583783      12.19279065       1.57267514       1.76581633       0.63859489       0.91995742       5.11224355      -1.78378843       0.00000000
H       11.79421226      12.26949161      10.00266962      -0.06666503      -0.17441106      -0.07476638      -1.83336158       1.31322889      -2.09408264       0.00000000
H       13.28254300      11.34359219      10.28847458      -0.03168389      -0.04002389      -0.29353590       2.12637404      -1.12052069      -1.06511500       0.00000000
H       12.78632176      12.65238364      11.46965761      -0.04389424       0.12288828       0.23355425       0.82260891       1.78968922       1.34537695       0.00000000
H       11.24505404      10.00878628      10.91668258      -0.12863343      -0.01224140      -0.17404141      -0.39114412      -1.98624966      -1.56316828       0.00000000
H       12.29296305      10.33689167      12.41828020       0.40952387      -0.20038445       0.38918215       1.20370084      -0.84964575       0.86869849       0.00000000
H       10.00410943      10.88612797      12.69627792      -0.10430312      -0.00601368      -0.06699558      -3.02873367      -3.71593177       2.92487888       0.00000000
9
Lattice="23.296006118037088 0.0 0.0 0.0 22.649327160371357 0.0 0.0 0.0 22.71683509278982" Properties=species:S:1:pos:R:3:momenta:R:3:forces:R:3:magmoms:R:1 Energy:=T 4.1390592=T energy=-37.059731539276754 dipole="-0.03202723663788698 -0.3036058161859284 0.0736658878223958" magmom=0.0 free_energy=-37.059731539276754 pbc="T T T"
C       12.42409832      11.83797343      10.79860921       0.17146916       0.28291673       0.38230370       0.33919502      -0.76873482       0.79089605       0.00000000
C       11.62507534      10.82204460      11.61569026       1.02932395      -0.21901900       1.39625692       0.31695447      -0.19507531       0.55925531       0.00000000
O       10.52178395      11.54164388      12.19461653       1.60919387       2.00255520       0.56360627       0.56715905       4.52824223      -1.26990010       0.00000000
H       11.78877048      12.26256493       9.99652117      -0.15409284      -0.11163376      -0.17288920      -1.72687563       1.24318949      -1.90167709       0.00000000
H       13.28354344      11.34030138      10.27289803       0.06623941      -0.09070207      -0.34053667       1.86126080      -0.94319721      -0.84885156       0.00000000
H       12.78516731      12.66051256      11.48264697      -0.00629156       0.20356779       0.29226410       0.70864814       1.49574387       1.04540675       0.00000000
H       11.23831854      10.00581330      10.90633231      -0.14354509      -0.10152215      -0.24228060      -0.21608874      -1.64944317      -1.21566927       0.00000000
H       12.31435678      10.32611160      12.43828199       0.45732710      -0.23504438       0.41918432       0.74294323      -0.56177649       0.35305079       0.00000000
H        9.99540353      10.88138887      12.69651325      -0.24316792      -0.17514520       0.06524808      -2.62612198      -3.17144592       2.46035024       0.00000000
9
Lattice="23.296006118037088 0.0 0.0 0.0 22.649327160371357 0.0 0.0 0.0 22.71683509278982" Properties=species:S:1:pos:R:3:momenta:R:3:forces:R:3:magmoms:R:1 Energy:=T 4.1390592=T energy=-37.29842408248009 dipole="-0.03856909947153808 -0.29925706814190867 0.06830596183809876" magmom=0.0 free_energy=-37.29842408248009 pbc="T T T"
C       12.42483352      11.83905310      10.80025188       0.19589735       0.25304404       0.41436463       0.65557015      -0.44774138       0.51468991       0.00000000
C       11.62931611      10.82112943      11.62145577       1.04920871      -0.24556221       1.42365010       0.49279310      -0.88581753       0.55625046       0.00000000
O       10.52676658      11.54813265      12.19625095       1.61971017       2.20159977       0.52046234      -0.13891380       3.57725543      -0.48700811       0.00000000
H       11.77919631      12.25861319       9.98582202      -0.23241956      -0.05460417      -0.25660148      -1.46274684       1.07917090      -1.50725624       0.00000000
H       13.28899785      11.33475351      10.25529018       0.14783404      -0.13058110      -0.37512617       1.46143767      -0.68075759      -0.55970280       0.00000000
H       12.78570866      12.67222079      11.49813798       0.02458536       0.26759079       0.33426959       0.54872267       1.11140220       0.66514199       0.00000000
H       11.23106595       9.99889321      10.89307297      -0.14901772      -0.17245969      -0.29148664      -0.00676787      -1.23927661      -0.78810034       0.00000000
H       12.33752837      10.31398721      12.45912861       0.48331311      -0.25572018       0.42493655       0.31525946      -0.28018407      -0.11880826       0.00000000
H        9.98041336      10.86906053      12.70263617      -0.35367781      -0.30774160       0.16784461      -1.87406422      -2.22814756       1.71758802       0.00000000
9
Lattice="23.296006118037088 0.0 0.0 0.0 22.649327160371357 0.0 0.0 0.0 22.71683509278982" Properties=species:S:1:pos:R:3:momenta:R:3:forces:R:3:magmoms:R:1 Energy:=T 4.1390592=T energy=-37.488101595072955 dipole="-0.04441829772604095 -0.29362158437441527 0.06303450048524147" magmom=0.0 free_energy=-37.488101595072955 pbc="T T T"
C       12.42570038      11.84004284      10.80199792       0.23504727       0.24048237       0.42938575       0.93869363      -0.06379534       0.09700032       0.00000000
C       11.63365585      10.82003637      11.62733299       1.07638410      -0.30570289       1.44864645       0.61384358      -1.56323298       0.46165156       0.00000000
O       10.53172827      11.55516075      12.19781195       1.59241544       2.35106616       0.51669579      -0.97258316       2.50931812       0.33362661       0.00000000
H       11.76612181      12.25724390       9.97151603      -0.29511642      -0.00710940      -0.31807644      -1.09039584       0.85491213      -0.99612859       0.00000000
H       13.29794947      11.32757659      10.23634297       0.20826673      -0.15674056      -0.39434281       0.99950368      -0.38450838      -0.22283767       0.00000000
H       12.78756309      12.68658858      11.51522066       0.04730843       0.31162649       0.35645355       0.37660651       0.68182028       0.23823373       0.00000000
H       11.22379716       9.98900755      10.87792771      -0.14387696      -0.22277572      -0.31914287       0.21611033      -0.80969421      -0.33811719       0.00000000
H       12.36145437      10.30119234      12.47969093       0.48924640      -0.26350842       0.40927332      -0.07364381      -0.03696860      -0.51903040       0.00000000
H        9.96093856      10.85140026      12.71286926      -0.42476312      -0.39122079       0.23260929      -1.02067351      -1.17129390       0.91976069       0.00000000
9
Lattice="23.296006118037088 0.0 0.0 0.0 22.649327160371357 0.0 0.0 0.0 22.71683509278982" Properties=species:S:1:pos:R:3:momenta:R:3:forces:R:3:magmoms:R:1 Energy:=T 4.1390592=T energy=-37.57334048335145 dipole="-0.04930936175629804 -0.2876095645501989 0.05812459997923049" magmom=0.0 free_energy=-37.57334048335145 pbc="T T T"
C       12.42675576      11.84101978      10.80376344       0.28673024       0.24681686       0.42234001       1.16594145       0.32174876      -0.38391713       0.00000000
C       11.63811887      10.81862937      11.63330292       1.10835659      -0.39704888       1.46809405       0.68814112      -2.15656018       0.33029412       0.00000000
O       10.53654333      11.56256718      12.19942324       1.52601099       2.44959688       0.55050581      -1.73154007       1.50305195       1.04318593       0.00000000
H       11.75043800      12.25792040       9.95482631      -0.33813009       0.02868129      -0.35341347      -0.66120784       0.60255711      -0.44286673       0.00000000
H       13.30929290      11.31947955      10.21686251       0.24568127      -0.16823540      -0.39704424       0.52409211      -0.08358492       0.11283003       0.00000000
H       12.79031874      12.70258797      11.53287344       0.06175415       0.33457427       0.35839944       0.21165269       0.25266000      -0.15899322       0.00000000
H       11.21704552       9.97718430      10.86197334      -0.12837610      -0.25273190      -0.32538282       0.41511568      -0.41018203       0.08401371       0.00000000
H       12.38520414      10.28830901      12.49901122       0.47758719      -0.26021312       0.37567222      -0.40114275       0.17115974      -0.84927429       0.00000000
H        9.93902131      10.83093709      12.72530333      -0.45490640      -0.42503898       0.26010311      -0.20682154      -0.20585123       0.19984328       0.00000000
9
Lattice="23.296006118037088 0.0 0.0 0.0 22.649327160371357 0.0 0.0 0.0 22.71683509278982" Properties=species:S:1:pos:R:3:momenta:R:3:forces:R:3:magmoms:R:1 Energy:=T 4.1390592=T energy=-37.54470895161424 dipole="-0.05309687779772279 -0.2820404561835471 0.05378610460373528" magmom=0.0 free_energy=-37.54470895161424 pbc="T T T"
C       12.42804529      11.84206133      10.80545185       0.34803437       0.27104515       0.39185580       1.33048669       0.66487614      -0.85746155       0.00000000
C       11.64272008      10.81678927      11.63933919       1.14302476      -0.51424476       1.48074849       0.72361668      -2.61589312       0.18502018       0.00000000
O       10.54109732      11.57020022      12.20119181       1.42642976       2.50266799       0.61557853      -2.32360931       0.65811134       1.60670702       0.00000000
H       11.73317192      12.26003881       9.93707682      -0.36009877       0.05234885      -0.36192044      -0.23340134       0.36123381       0.09644595       0.00000000
H       13.32189047      11.31118250      10.19765205       0.26059140      -0.16544871      -0.38350992       0.08307864       0.19706449       0.43831469       0.00000000
H       12.79358087      12.71919196      11.55014575       0.06852194       0.33752194       0.34174141       0.06394523      -0.13262524      -0.51935543       0.00000000
H       11.21128724       9.96437949      10.84622001      -0.10381157      -0.26403945      -0.31185458       0.58520206      -0.05028397       0.46688364       0.00000000
H       12.40799399      10.27583526      12.51629920       0.45098086      -0.24777550       0.32791091      -0.68232090       0.33532528      -1.09566273       0.00000000
H        9.91660913      10.80998133      12.73821563      -0.44895538      -0.41580171       0.25607953       0.44915913       0.58201120      -0.36369147       0.00000000
9
Lattice="23.296006118037088 0.0 0.0 0.0 22.649327160371357 0.0 0.0 0.0 22.71683509278982" Properties=species:S:1:pos:R:3:momenta:R:3:forces:R:3:magmoms:R:1 Energy:=T 4.1390592=T energy=-37.425685679275404 dipole="-0.05575281277864858 -0.27749416419308803 0.0501270951794945" magmom=0.0 free_energy=-37.425685679275404 pbc="T T T"
C       12.42960201      11.84323641      10.80696806       0.41588475       0.31043065       0.33950464       1.43251807       0.93898098      -1.27438342       0.00000000
C       11.64746662      10.81442383      11.64541261       1.17839122      -0.65044967       1.48563186       0.71657731      -2.93064634       0.01384043       0.00000000
O       10.54530099      11.57793248      12.20320263       1.30254992       2.51842422       0.70473048      -2.72102833      -0.01648579       2.02374059       0.00000000
H       11.71534732      12.26302166       9.91955812      -0.36218585       0.06485966      -0.34524888       0.14841115       0.14823169       0.58245350       0.00000000
H       13.33468684      11.30335701      10.17949048       0.25589064      -0.15009316      -0.35496206      -0.27450333       0.42824458       0.72421206       0.00000000
H       12.79699602      12.73547859      11.56617524       0.06866539       0.32316959       0.30866499      -0.05810377      -0.45183145      -0.82758343       0.00000000
H       11.20692935       9.95145435      10.83158393      -0.07147975      -0.25892936      -0.28083166       0.73141464       0.25837709       0.79643230       0.00000000
H       12.42915104      10.26416394      12.53096528       0.41235468      -0.22799156       0.26935166      -0.89061529       0.47031703      -1.28898851       0.00000000
H        9.89527179      10.79041831      12.75025761      -0.41461253      -0.37259682       0.22842609       0.94935121       1.17737933      -0.76241246       0.00000000
9
Lattice="23.296006118037088 0.0 0.0 0.0 22.649327160371357 0.0 0.0 0.0 22.71683509278982" Properties=species:S:1:pos:R:3:momenta:R:3:forces:R:3:magmoms:R:1 Energy:=T 4.1390592=T energy=-37.425685679275404 dipole="-0.05575281277864858 -0.27749416419308803 0.0501270951794945" magmom=0.0 free_energy=-37.425685679275404 pbc="T T T"
C       12.43145069      11.84461938      10.80819503       0.48804126       0.36863075       0.25489104       1.43251807       0.93898098      -1.27438342       0.00000000
C       11.65235392      10.81145164      11.65147528       1.21118673      -0.80447455       1.47773837       0.71657731      -2.93064634       0.01384043       0.00000000
O       10.54907842      11.58562981      12.20553700       1.15918035       2.49223479       0.81610153      -2.72102833      -0.01648579       2.02374059       0.00000000
H       11.69826767      12.26613773       9.90393314      -0.33212272       0.05914681      -0.28767479       0.14841115       0.14823169       0.58245350       0.00000000
H       13.34655822      11.29674493      10.16334309       0.23078959      -0.12007540      -0.30372048      -0.27450333       0.42824458       0.72421206       0.00000000
H       12.80016394      12.75039026      11.57995918       0.05991456       0.28485717       0.25359662      -0.05810377      -0.45183145      -0.82758343       0.00000000
H       11.20445163       9.93942353      10.81915093      -0.02872684      -0.23135235      -0.22560715       0.73141464       0.25837709       0.79643230       0.00000000
H       12.44795706      10.25372057      12.54242568       0.35748620      -0.19879671       0.19882063      -0.89061529       0.47031703      -1.28898851       0.00000000
H        9.87666610      10.77423043      12.76011587      -0.33941778      -0.27956732       0.16849481       0.94935121       1.17737933      -0.76241246       0.00000000
9
Lattice="23.296006118037088 0.0 0.0 0.0 22.649327160371357 0.0 0.0 0.0 22.71683509278982" Properties=species:S:1:pos:R:3:momenta:R:3:forces:R:3:magmoms:R:1 Energy:=T 4.1390592=T energy=-37.098630041801336 dipole="-0.057957210637293234 -0.2729873157670925 0.04486266233902856" magmom=0.0 free_energy=-37.098630041801336 pbc="T T T"
C       12.43359325      11.84625110      10.80905258       0.56010498       0.42879087       0.16508887       1.47121477       1.21118196      -1.81744937       0.00000000
C       11.65737180      10.80784477      11.65749767       1.24310999      -0.95877302       1.46571027       0.64971839      -3.12299806      -0.28927005       0.00000000
O       10.55241786      11.59323373      12.20821314       1.01394184       2.45392902       0.93037910      -3.00933444      -0.94026569       2.38679192       0.00000000
H       11.68298283      12.26878536       9.89152497      -0.29585361       0.05052961      -0.22381064       0.72691882      -0.15514871       1.25641647       0.00000000
H       13.35717668      11.29165598      10.14989372       0.19861214      -0.08559765      -0.24887321      -0.78675389       0.76750840       1.10602809       0.00000000
H       12.80283454      12.76323717      11.59088756       0.04921603       0.24144603       0.19373107      -0.22784431      -0.90495605      -1.24454386       0.00000000
H       11.20413000       9.92890968      10.80959910       0.01545873      -0.19997632      -0.16587051       0.89832363       0.64377124       1.22859240       0.00000000
H       12.46398713      10.24479172      12.55033982       0.29996461      -0.16741359       0.12638935      -1.18235788       0.64508153      -1.46761471       0.00000000
H        9.86219642      10.76317521      12.76667698      -0.25968011      -0.18123876       0.10594841       1.51869631       1.85926729      -1.16918058       0.00000000
9
Lattice="23.296006118037088 0.0 0.0 0.0 22.649327160371357 0.0 0.0 0.0 22.71683509278982" Properties=species:S:1:pos:R:3:momenta:R:3:forces:R:3:magmoms:R:1 Energy:=T 4.1390592=T energy=-36.963929331224904 dipole="-0.0577052605260643 -0.272984737298211 0.0429590803725704" magmom=0.0 free_energy=-36.963929331224904 pbc="T T T"
C       12.43603128      11.84812607      10.80954514       0.63103364       0.48864382       0.07255564       1.41714372       1.22615095      -1.95069081       0.00000000
C       11.66252017      10.80361072      11.66346197       1.27330075      -1.10933172       1.44782739       0.57971034      -3.00805646      -0.43895689       0.00000000
O       10.55530358      11.60069588      12.21124913       0.86616824       2.39984728       1.04813646      -3.00830542      -1.26205220       2.40852607       0.00000000
H       11.66943751      12.27106171       9.88212338      -0.25551594       0.04063064      -0.15661682       0.91571287      -0.24795747       1.47985205       0.00000000
H       13.36591245      11.28840367      10.13909105       0.15626599      -0.04529243      -0.19167933      -0.93766690       0.87380191       1.22302236       0.00000000
H       12.80495991      12.77391854      11.59883776       0.03689340       0.19366602       0.12959633      -0.27395812      -1.04074268      -1.36715219       0.00000000
H       11.20595804       9.91993636      10.80298729       0.06042519      -0.16527899      -0.10190012       0.93280176       0.76917421       1.37641138       0.00000000
H       12.47718783      10.23740655      12.55474199       0.24023303      -0.13475141       0.05417610      -1.25003301       0.68498877      -1.47305525       0.00000000
H        9.85136096      10.75656919      12.77044026      -0.18198144      -0.08568672       0.04660850       1.64535097       2.03180515      -1.24726061       0.00000000
9
Lattice="23.296006118037088 0.0 0.0 0.0 22.649327160371357 0.0 0.0 0.0 22.71683509278982" Properties=species:S:1:pos:R:3:momenta:R:3:forces:R:3:magmoms:R:1 Energy:=T 4.1390592=T energy=-36.87965907739676 dipole="-0.05671123247832497 -0.27432670273875964 0.04129900814913161" magmom=0.0 free_energy=-36.87965907739676 pbc="T T T"
C       12.43875390      11.85024727      10.80964595       0.69830474       0.54767960      -0.02454353       1.32227161       1.17790578      -2.00338379       0.00000000
C       11.66778496      10.79877256      11.66933812       1.30016558      -1.25218719       1.42281392       0.51428008      -2.80930728      -0.57964228       0.00000000
O       10.55773575      11.60796775      12.21464824       0.72026918       2.33081295       1.16548238      -2.93299941      -1.54916531       2.37003700       0.00000000
H       11.65808348      12.27274471       9.87626307      -0.20706502       0.02684848      -0.08029445       1.05730644      -0.31327971       1.62814922       0.00000000
H       13.37240439      11.28724235      10.13121507       0.10804713      -0.00076099      -0.12989315      -1.02590242       0.93960822       1.29303586       0.00000000
H       12.80642970      12.78210942      11.60351639       0.02282278       0.14062981       0.06077602      -0.29902566      -1.11899900      -1.43535006       0.00000000
H       11.21001827       9.91280367      10.79966921       0.10638985      -0.12544186      -0.03189193       0.93897192       0.85307428       1.47446350       0.00000000
H       12.48739721      10.23166055      12.55561914       0.17808653      -0.10079487      -0.01750309      -1.28069815       0.69779027      -1.44586601       0.00000000
H        9.84446280      10.75482527      12.77121886      -0.09977490       0.01628105      -0.01516146       1.70226557       2.12052863      -1.26813709       0.00000000
9
Lattice="23.296006118037088 0.0 0.0 0.0 22.649327160371357 0.0 0.0 0.0 22.71683509278982" Properties=species:S:1:pos:R:3:momenta:R:3:forces:R:3:magmoms:R:1 Energy:=T 4.1390592=T energy=-36.858583406063985 dipole="-0.05516121709431108 -0.27689023799885953 0.03974799760666567" magmom=0.0 free_energy=-36.858583406063985 pbc="T T T"
C       12.44174207      11.85260503      10.80934442       0.76014484       0.60307068      -0.12242915       1.19598202       1.07773090      -1.98271688       0.00000000
C       11.67315303      10.79337023      11.67509786       1.32296917      -1.38241521       1.39048443       0.41432794      -2.49384116      -0.73687998       0.00000000
O       10.55972572      11.61500606      12.21840468       0.58026720       2.24925647       1.27984670      -2.76816456      -1.77197971       2.28710955       0.00000000
H       11.64925957      12.27367803       9.87429890      -0.15269425       0.01046498       0.00179693       1.15678130      -0.35388964       1.71477783       0.00000000
H       13.37644136      11.28832951      10.12643331       0.05683632       0.04624342      -0.06576493      -1.05950526       0.97450644       1.31839519       0.00000000
H       12.80718393      12.78762254      11.60476023       0.00799349       0.08480106      -0.01028945      -0.30485332      -1.15446075      -1.45857994       0.00000000
H       11.21632545       9.90771238      10.79987950       0.15212962      -0.08254633       0.04177390       0.92364425       0.89371845       1.52535829       0.00000000
H       12.49454189      10.22758436      12.55303636       0.11517319      -0.06679672      -0.08683695      -1.28126017       0.68668286      -1.37754937       0.00000000
H        9.84163816      10.75815574      12.76896282      -0.01613982       0.12106711      -0.07687077       1.70352394       2.14657141      -1.24479095       0.00000000
9
Lattice="23.296006118037088 0.0 0.0 0.0 22.649327160371357 0.0 0.0 0.0 22.71683509278982" Properties=species:S:1:pos:R:3:momenta:R:3:forces:R:3:magmoms:R:1 Energy:=T 4.1390592=T energy=-36.904041780760814 dipole="-0.05328229565401417 -0.28053438960355026 0.038199439893977026" magmom=0.0 free_energy=-36.904041780760814 pbc="T T T"
C       12.44497043      11.85517923      10.80864471       0.81494275       0.65232514      -0.21766037       1.03549983       0.92801040      -1.89529081       0.00000000
C       11.67860431      10.78746706      11.68070962       1.34051966      -1.49497304       1.35008281       0.30036359      -2.08974143      -0.90835580       0.00000000
O       10.56129834      11.62177721      12.22250595       0.45016229       2.15819482       1.38935068      -2.52997032      -1.93623493       2.17211409       0.00000000
H       11.64320382      12.27376449       9.87643817      -0.09464881      -0.00738955       0.08653661       1.20694629      -0.37318296       1.73599349       0.00000000
H       13.37794294      11.29174865      10.12480645       0.00532950       0.09417232      -0.00150612      -1.03795679       0.97725540       1.29835329       0.00000000
H       12.80720865      12.79037306      11.60251371      -0.00664410       0.02840532      -0.08135218      -0.29121900      -1.14208752      -1.43523804       0.00000000
H       11.22484291       9.90475975      10.80373996       0.19671411      -0.03865008       0.11686344       0.89192618       0.89382566       1.53243944       0.00000000
H       12.49862053      10.22515139      12.54715711       0.05339259      -0.03397679      -0.15174054      -1.23457075       0.64981126      -1.26545598       0.00000000
H        9.84289002      10.76662294      12.76372801       0.06608321       0.22546643      -0.13644706       1.64476411       2.10478006      -1.18127624       0.00000000
9
Lattice="23.296006118037088 0.0 0.0 0.0 22.649327160371357 0.0 0.0 0.0 22.71683509278982" Properties=species:S:1:pos:R:3:momenta:R:3:forces:R:3:magmoms:R:1 Energy:=T 4.1390592=T energy=-37.01004263756553 dipole="-0.051334294396735626 -0.28511716357487366 0.036582596068906584" magmom=0.0 free_energy=-37.01004263756553 pbc="T T T"
C       12.44840674      11.85793980      10.80756438       0.86091943       0.69295218      -0.30713276       0.83676381       0.72640469      -1.74820586       0.00000000
C       11.68411591      10.78114421      11.68613895       1.35238986      -1.58609275       1.30159153       0.18301513      -1.62083738      -1.06630730       0.00000000
O       10.56248953      11.62825645      12.22693470       0.33334245       2.06035571       1.49172797      -2.22716989      -2.04797154       1.99689588       0.00000000
H       11.64003629      12.27295793       9.88273166      -0.03529421      -0.02562172       0.17083273       1.21009311      -0.36926768       1.69671464       0.00000000
H       13.37696071      11.29750636      10.12628654      -0.04384497       0.14146022       0.06066079      -0.96452704       0.94840365       1.23320922       0.00000000
H       12.80653648      12.79039057      11.59683267      -0.02015443      -0.02607714      -0.15021607      -0.25894868      -1.07654869      -1.36903900       0.00000000
H       11.23549473       9.90394604      10.81126754       0.23906232       0.00423216       0.19117104       0.83257859       0.85242555       1.49351649       0.00000000
H       12.49974486      10.22427341      12.53824964      -0.00486989      -0.00371206      -0.20991380      -1.13799549       0.58262955      -1.10347691       0.00000000
H        9.84807779      10.78012685      12.75566641       0.14387607       0.32594464      -0.19176674       1.52311855       1.98689606      -1.07145310       0.00000000
9
Lattice="23.296006118037088 0.0 0.0 0.0 22.649327160371357 0.0 0.0 0.0 22.71683509278982" Properties=species:S:1:pos:R:3:momenta:R:3:forces:R:3:magmoms:R:1 Energy:=T 4.1390592=T energy=-37.16026141403148 dipole="-0.04959956194847305 -0.2904837880435812 0.03486933101322814" magmom=0.0 free_energy=-37.16026141403148 pbc="T T T"
C       12.45201110      11.86084625      10.80613296       0.89625016       0.72234774      -0.38804763       0.60197481       0.47064212      -1.54681133       0.00000000
C       11.68966427      10.77449586      11.69135414       1.35745756      -1.65142159       1.24473240       0.02335187      -1.03948525      -1.24911140       0.00000000
O       10.56334492      11.63442691      12.23166451       0.23317929       1.95911935       1.58383556      -1.85167639      -2.07457754       1.75391163       0.00000000
H       11.63976450      12.27126772       9.89308537       0.02291744      -0.04310466       0.25168698       1.16040317      -0.34267319       1.59583402       0.00000000
H       13.37367037      11.30553358      10.13071769      -0.08809340       0.18646555       0.11851072      -0.83735877       0.88430434       1.12255687       0.00000000
H       12.80524465      12.78783191      11.58787554      -0.03162820      -0.07599489      -0.21476340      -0.20828646      -0.95620296      -1.25945885       0.00000000
H       11.24813890       9.90517216      10.82236908       0.27776107       0.04411920       0.26233186       0.74331275       0.77185568       1.40429611       0.00000000