9
Lattice="23.296006118037088 0.0 0.0 0.0 22.649327160371357 0.0 0.0 0.0 22.71683509278982" Properties=species:S:1:pos:R:3:momenta:R:3:forces:R:3:magmoms:R:1 Energy:=T 4.1390592=T energy=-36.96778152509754 dipole="-0.00852190655046131 -0.3029518579610027 0.08485966130983816" magmom=0.0 free_energy=-36.96778152509754 pbc="T T T"
C       12.42565450      11.83340041      10.79444328       0.87121623      -0.09371943      -0.04707243      -0.21619068      -0.93382890       0.12480488       0.00000000
C       11.61534283      10.82471503      11.59908764       0.67509354      -0.05306478       0.02887519      -0.33844680       0.62491663      -0.06313315       0.00000000
O       10.50931705      11.52643901      12.18957066       0.59069034       0.06653968       0.38202035      -0.24043298       4.09159314      -0.96273246       0.00000000
H       11.79392950      12.29541315      10.00054498       0.00122354       0.08358977      -0.03195751      -1.45161296       1.08709876      -1.75685529       0.00000000
H       13.30253264      11.34279787      10.30113719       0.17953842      -0.00902042      -0.24312474       1.85646715      -1.08469137      -1.05689532       0.00000000
H       12.81071084      12.63591218      11.45730344       0.35111742      -0.22588682       0.11233693       0.87444761       2.01333499       1.62336777       0.00000000
H       11.26595652       9.98802929      10.92302774       0.20454799      -0.29446727      -0.09383558      -0.45220788      -1.98648714      -1.66230724       0.00000000
H       12.27584301      10.36061193      12.38528981       0.37479785       0.15083856       0.03308490       1.85215870      -1.27341739       1.65341657       0.00000000
H        9.99253337      10.85519180      12.71933552      -0.20128546      -0.34628744       0.10077608      -1.95632801      -2.55821957       2.01401049       0.00000000
9
Lattice="23.296006118037088 0.0 0.0 0.0 22.649327160371357 0.0 0.0 0.0 22.71683509278982" Properties=species:S:1:pos:R:3:momenta:R:3:forces:R:3:magmoms:R:1 Energy:=T 4.1390592=T energy=-37.16909556515891 dipole="-0.005990437761376834 -0.30111096770168333 0.08148809952731209" magmom=0.0 free_energy=-37.16909556515891 pbc="T T T"
C       12.42919523      11.83292342      10.79426333       0.86589946      -0.13792877      -0.04939570      -0.00031900      -0.86646445      -0.21941321       0.00000000
C       11.61806933      10.82456080      11.59919937       0.66152605      -0.03581162       0.02503100      -0.21404882       0.07766685      -0.09341011       0.00000000
O       10.51111222      11.52695171      12.19067081       0.56401713       0.24740961       0.35006375      -0.84575399       3.27379608      -0.33860468       0.00000000
H       11.79225227      12.30078666       9.99688582      -0.06560114       0.13511607      -0.11247678      -1.26962325       1.01115636      -1.52205244       0.00000000
H       13.31350166      11.34106054      10.28802669       0.26122761      -0.05821212      -0.28994331       1.47008180      -0.91849406      -0.84965159       0.00000000
H       12.82886485      12.62731508      11.46471927       0.39280302      -0.12926874       0.18952120       0.82307410       1.92114865       1.51973155       0.00000000
H       11.27538179       9.97130494      10.91646678       0.18564121      -0.38291941      -0.16746356      -0.31771431      -1.61546270      -1.33597291       0.00000000
H       12.29632064      10.36643770      12.38888013       0.45963566       0.09173698       0.10827747       1.60260851      -1.13331831       1.40857695       0.00000000
H        9.98038526      10.83525850      12.72665546      -0.28138643      -0.45278889       0.18332611      -1.30554533      -1.77873512       1.34759367       0.00000000
9
Lattice="23.296006118037088 0.0 0.0 0.0 22.649327160371357 0.0 0.0 0.0 22.71683509278982" Properties=species:S:1:pos:R:3:momenta:R:3:forces:R:3:magmoms:R:1 Energy:=T 4.1390592=T energy=-37.382354422139414 dipole="-0.003882110120934037 -0.2977984196788651 0.07806846379054817" magmom=0.0 free_energy=-37.382354422139414 pbc="T T T"
C       12.43273590      11.83227242      10.79403932       0.87334443      -0.17382693      -0.06947716       0.30349333      -0.59538127      -0.59834436       0.00000000
C       11.62075284      10.82442216      11.59929235       0.65591836      -0.04944393       0.02098657      -0.01430746      -0.63280206      -0.07128742       0.00000000
O       10.51277987      11.52795800      12.19171990       0.50644728       0.38605327       0.34968257      -1.49860677       2.37205436       0.32308226       0.00000000
H       11.78753684      12.30857985       9.98958441      -0.12094143       0.18110711      -0.17839381      -0.98394548       0.86169184      -1.16222210       0.00000000
H       13.32798858      11.33712526      10.27288298       0.32184773      -0.09766038      -0.32532012       0.99849209      -0.68791883      -0.59096366       0.00000000
H       12.84898846      12.62331528      11.47577179       0.42982925      -0.04139008       0.25803306       0.68470909       1.65744829       1.27020991       0.00000000
H       11.28404677       9.95071480      10.90670886       0.17385889      -0.45046450      -0.22323987      -0.16208578      -1.13510999      -0.93535142       0.00000000
H       12.32063330      10.36955146      12.39584117       0.52923137       0.04098621       0.16895108       1.23146938      -0.93335582       1.06217518       0.00000000
H        9.96511300      10.81106871      12.73720017      -0.32844593      -0.51856669       0.23227104      -0.61081272      -0.89986964       0.64554323       0.00000000
9
Lattice="23.296006118037088 0.0 0.0 0.0 22.649327160371357 0.0 0.0 0.0 22.71683509278982" Properties=species:S:1:pos:R:3:momenta:R:3:forces:R:3:magmoms:R:1 Energy:=T 4.1390592=T energy=-37.54489993262974 dipole="-0.002368090323573683 -0.29361645307920703 0.07479631358403334" magmom=0.0 free_energy=-37.54489993262974 pbc="T T T"
C       12.43633752      11.83150185      10.79369514       0.89680591      -0.19283624      -0.10780474       0.65190526      -0.17871632      -0.96243242       0.00000000
C       11.62343348      10.82415644      11.59937100       0.66130121      -0.09908157       0.01902315       0.23350794      -1.38854309      -0.00866692       0.00000000
O       10.51422159      11.52932192      12.19281771       0.41872399       0.48157324       0.37980745      -2.07366318       1.51771181       0.90366387       0.00000000
H       11.78046684      12.31843507       9.97950182      -0.16069642       0.21840431      -0.22496267      -0.63495806       0.65712573      -0.73415629       0.00000000
H       13.34486488      11.33154379      10.25632510       0.35871246      -0.12533290      -0.34747233       0.50271435      -0.43896216      -0.31111914       0.00000000
H       12.87075058      12.62328173      11.48986391       0.45817218       0.03075222       0.31142733       0.46947236       1.28033194       0.90411280       0.00000000
H       11.29232388       9.92740836      10.89471264       0.16968191      -0.49432929      -0.25855370      -0.00800907      -0.65115298      -0.50269894       0.00000000
H       12.34789285      10.37043170      12.40534397       0.57917285       0.00084827       0.21132009       0.80224877      -0.70114227       0.66317664       0.00000000
H        9.94837907      10.78472554      12.74928966      -0.34289069      -0.54321435       0.24854073       0.02259289      -0.10383289       0.01699112       0.00000000
9
Lattice="23.296006118037088 0.0 0.0 0.0 22.649327160371357 0.0 0.0 0.0 22.71683509278982" Properties=species:S:1:pos:R:3:momenta:R:3:forces:R:3:magmoms:R:1 Energy:=T 4.1390592=T energy=-37.621095918055005 dipole="-0.001569281949010377 -0.2892104259052313 0.07180575534499856" magmom=0.0 free_energy=-37.621095918055005 pbc="T T T"
C       12.44007005      11.83069539      10.79315768       0.93740425      -0.18969839      -0.16278426       1.00134126       0.30649570      -1.27644488       0.00000000
C       11.62616102      10.82361187      11.59944792       0.67928541      -0.18458966       0.02072868       0.49884509      -2.09351947       0.07811947       0.00000000
O       10.51535066      11.53091465      12.19405175       0.30620791       0.53786423       0.43515121      -2.50821909       0.77457117       1.35004568       0.00000000
H       11.77187740      12.32986278       9.96766239      -0.18304266       0.24488205      -0.25017495      -0.27502596       0.42110113      -0.29253872       0.00000000
H       13.36294417      11.32491190      10.23902272       0.37155650      -0.14103620      -0.35596180       0.02032095      -0.20050823      -0.03458921       0.00000000
H       12.89363614      12.62631200      11.50611956       0.47509288       0.08313106       0.34543284       0.21957282       0.85264017       0.48066042       0.00000000
H       11.30058182       9.90254371      10.88151348       0.17232106      -0.51401904      -0.27324361       0.11548051      -0.15065360      -0.09550392       0.00000000
H       12.37707217      10.36963412      12.41643375       0.60743694      -0.02797316       0.23362996       0.34872237      -0.47252439       0.24532665       0.00000000
H        9.93169920      10.75813390      12.76141981      -0.32894550      -0.53166967       0.23724396       0.54528346       0.57395543      -0.47701848       0.00000000
9
Lattice="23.296006118037088 0.0 0.0 0.0 22.649327160371357 0.0 0.0 0.0 22.71683509278982" Properties=species:S:1:pos:R:3:momenta:R:3:forces:R:3:magmoms:R:1 Energy:=T 4.1390592=T energy=-37.60595632623474 dipole="-0.0014844767267847211 -0.2851653447567241 0.06914510109811638" magmom=0.0 free_energy=-37.60595632623474 pbc="T T T"
C       12.44400369      11.82995048      10.79236388       0.99436553      -0.16275015      -0.23148153       1.31823731       0.79089133      -1.52104688       0.00000000
C       11.62898873      10.82264685      11.59954052       0.71006181      -0.30190052       0.02687338       0.75443209      -2.68361596       0.17210548       0.00000000
O       10.51610157      11.53262417      12.19548935       0.17613985       0.56080084       0.50896552      -2.78841560       0.15945406       1.65582252       0.00000000
H       11.76262982      12.34229818       9.95512293      -0.18811450       0.26001254      -0.25439742       0.06849029       0.19504300       0.12059109       0.00000000
H       13.38107208      11.31780019      10.22163756       0.36203513      -0.14549794      -0.35139776      -0.40805036       0.01881734       0.22044634       0.00000000
H       12.91704713      12.63138263      11.52352543       0.47884078       0.11420486       0.35825814      -0.06695102       0.41274804       0.04161186       0.00000000
H       11.30911611       9.87731856      10.86808577       0.18033327      -0.51086368      -0.26963869       0.21079283       0.27914639       0.24230358       0.00000000
H       12.40708598      10.36770579      12.42811060       0.61411933      -0.04603137       0.23610487      -0.07660213      -0.26284271      -0.14454336       0.00000000
H        9.91632420      10.73291573      12.77240846      -0.29259155      -0.49080248       0.20500517       0.93512283       1.09023934      -0.83581012       0.00000000
9
Lattice="23.296006118037088 0.0 0.0 0.0 22.649327160371357 0.0 0.0 0.0 22.71683509278982" Properties=species:S:1:pos:R:3:momenta:R:3:forces:R:3:magmoms:R:1 Energy:=T 4.1390592=T energy=-37.60595632623474 dipole="-0.0014844767267847211 -0.2851653447567241 0.06914510109811638" magmom=0.0 free_energy=-37.60595632623474 pbc="T T T"
C       12.44822841      11.82940781      10.79124747       1.07687417      -0.09409320      -0.31709668       1.31823731       0.79089133      -1.52104688       0.00000000
C       11.63199063      10.82109819      11.59967648       0.76274301      -0.46295066       0.04138769       0.75443209      -2.68361596       0.17210548       0.00000000
O       10.51642138      11.53432004      12.19719051       0.03137458       0.53397501       0.60167789      -2.78841560       0.15945406       1.65582252       0.00000000
H       11.75389151      12.35495382       9.94328631      -0.16530388       0.25540416      -0.22521097       0.06849029       0.19504300       0.12059109       0.00000000
H       13.39780191      11.31095726      10.20504091       0.31812035      -0.13183106      -0.32564828      -0.40805036       0.01881734       0.22044634       0.00000000
H       12.93995126      12.63693107      11.54051562       0.45389376       0.10344987       0.32891646      -0.06695102       0.41274804       0.04161186       0.00000000
H       11.31820977       9.85317222      10.85552089       0.19301264      -0.47510642      -0.24323841       0.21079283       0.27914639       0.24230358       0.00000000
H       12.43647693      10.36535014      12.43904160       0.58550686      -0.04772134       0.20644634      -0.07660213      -0.26284271      -0.14454336       0.00000000
H        9.90350282      10.71073791      12.78112100      -0.22988195      -0.41411437       0.14952333       0.93512283       1.09023934      -0.83581012       0.00000000
9
Lattice="23.296006118037088 0.0 0.0 0.0 22.649327160371357 0.0 0.0 0.0 22.71683509278982" Properties=species:S:1:pos:R:3:momenta:R:3:forces:R:3:magmoms:R:1 Energy:=T 4.1390592=T energy=-37.60595632623474 dipole="-0.0014844767267847211 -0.2851653447567241 0.06914510109811638" magmom=0.0 free_energy=-37.60595632623474 pbc="T T T"
C       12.45281045      11.82918098      10.78977064       1.16758078      -0.01058340      -0.40641843       1.31823731       0.79089133      -1.52104688       0.00000000
C       11.63522651      10.81886081      11.59987900       0.82343071      -0.63574596       0.05894710       0.75443209      -2.68361596       0.17210548       0.00000000
O       10.51629420      11.53590254      12.19918339      -0.11326267       0.48838844       0.69756663      -2.78841560       0.15945406       1.65582252       0.00000000
H       11.74652139      12.36718664       9.93317671      -0.13395672       0.24397501      -0.18600420       0.06849029       0.19504300       0.12059109       0.00000000
H       13.41207207      11.30495360      10.18990399       0.26325397      -0.11212023      -0.29270429      -0.40805036       0.01881734       0.22044634       0.00000000
H       12.96127788      12.64146355      11.55557747       0.41416730       0.07275525       0.27930741      -0.06695102       0.41274804       0.04161186       0.00000000
H       11.32792468       9.83102068      10.84438283       0.20471438      -0.43229868      -0.21409930       0.21079283       0.27914639       0.24230358       0.00000000
H       12.46414208      10.36305547      12.44822825       0.54579626      -0.04493400       0.16684210      -0.07660213      -0.26284271      -0.14454336       0.00000000
H        9.89392281      10.69256138      12.78697911      -0.16161526      -0.32927492       0.08978115       0.93512283       1.09023934      -0.83581012       0.00000000
9
Lattice="23.296006118037088 0.0 0.0 0.0 22.649327160371357 0.0 0.0 0.0 22.71683509278982" Properties=species:S:1:pos:R:3:momenta:R:3:forces:R:3:magmoms:R:1 Energy:=T 4.1390592=T energy=-37.2851103497529 dipole="-0.0027954531291794473 -0.2791853195286344 0.0626522579324176" magmom=0.0 free_energy=-37.2851103497529 pbc="T T T"
C       12.45777698      11.82932126      10.78792375       1.25888345       0.07596452      -0.49698989       1.80349286       1.69639427      -1.84559247       0.00000000
C       11.63872472      10.81589901      11.60015855       0.88669752      -0.81009556       0.07676938       1.27008736      -3.49271028       0.34217317       0.00000000
O       10.51572600      11.53731853      12.20147327      -0.25461854       0.43590198       0.79213053      -2.83113936      -1.03287225       1.88090361       0.00000000
H       11.74083778      12.37872854       9.92516069      -0.09718797       0.22930519      -0.14104712       0.79252749      -0.30865689       0.95586272       0.00000000
H       13.42345531      11.30003144      10.17651765       0.20411182      -0.09032824      -0.25674973      -1.20197678       0.43546637       0.73259912       0.00000000
H       12.98031077      12.64402088      11.56773339       0.37468185       0.04100264       0.22809856      -0.64940658      -0.46763933      -0.87097208       0.00000000
H       11.33815865       9.81104585      10.83465747       0.21808501      -0.38120759      -0.17628169       0.32757362       1.17091362       0.94966031       0.00000000
H       12.48966334      10.36097144      12.45529993       0.49949216      -0.03923614       0.12446140      -0.98968549       0.14400485      -0.84200873       0.00000000
H        9.88775384      10.67865094      12.78986993      -0.09051753      -0.23974387       0.02699491       1.46981214       1.86313565      -1.31678856       0.00000000
9
Lattice="23.296006118037088 0.0 0.0 0.0 22.649327160371357 0.0 0.0 0.0 22.71683509278982" Properties=species:S:1:pos:R:3:momenta:R:3:forces:R:3:magmoms:R:1 Energy:=T 4.1390592=T energy=-37.18860225974768 dipole="-0.0028151522100870368 -0.27944766077735367 0.060628038631040077" magmom=0.0 free_energy=-37.18860225974768 pbc="T T T"
C       12.46310570      11.82980222      10.78570621       1.34762974       0.16193104      -0.58720029       1.81043535       1.80433618      -1.82795752       0.00000000
C       11.64247799      10.81223578      11.60050682       0.95119891      -0.98119795       0.09392477       1.35653970      -3.47492507       0.35642919       0.00000000
O       10.51473095      11.53857879      12.20404673      -0.38949970       0.37908727       0.88250111      -2.66149400      -1.28073772       1.79916946       0.00000000
H       11.73705068      12.38953183       9.91943204      -0.05485066       0.21157079      -0.09034073       0.93153341      -0.41352376       1.10900408       0.00000000
H       13.43196223      11.29615135      10.16488441       0.14234086      -0.06736832      -0.21888393      -1.31346163       0.49950805       0.80937264       0.00000000
H       12.99778964      12.64545915      11.57780508       0.33979395       0.01427338       0.18113432      -0.77129897      -0.62083013      -1.04150673       0.00000000
H       11.34917650       9.79387301      10.82720464       0.23396773      -0.31962344      -0.12639247       0.31920277       1.33691742       1.08192959       0.00000000
H       12.51281628      10.35923201      12.46035669       0.44563543      -0.03044869       0.08019891      -1.20346949       0.21383785      -0.96044933       0.00000000
H        9.88510211      10.66919897      12.78960970      -0.01759580      -0.14601907      -0.03804935       1.49970842       1.95352809      -1.33194524       0.00000000
9
Lattice="23.296006118037088 0.0 0.0 0.0 22.649327160371357 0.0 0.0 0.0 22.71683509278982" Properties=species:S:1:pos:R:3:momenta:R:3:forces:R:3:magmoms:R:1 Energy:=T 4.1390592=T energy=-37.13160311802058 dipole="-0.0022334992017981835 -0.28085337991220766 0.05848485893998394" magmom=0.0 free_energy=-37.13160311802058 pbc="T T T"
C       12.46879801      11.83064554      10.78312158       1.43542827       0.25134184      -0.67510698       1.76489859       1.83665240      -1.75178057       0.00000000
C       11.64650370      10.80787469      11.60092668       1.01929577      -1.14841786       0.11140741       1.41650219      -3.33460781       0.35549936       0.00000000
O       10.51333464      11.53964596      12.20689144      -0.51439514       0.31158323       0.96748901      -2.42450101      -1.46816354       1.66170986       0.00000000
H       11.73549273      12.39934556       9.91635722      -0.00677407       0.18929414      -0.03350166       1.02624243      -0.49362678       1.20559764       0.00000000
H       13.43732605      11.29346657      10.15518799       0.07651225      -0.04190080      -0.17821853      -1.36721245       0.53758086       0.84660473       0.00000000
H       13.01342280      12.64541178      11.58538445       0.29964868      -0.01874220       0.12688510      -0.86349759      -0.72363142      -1.16763135       0.00000000
H       11.36095819       9.77989939      10.82234086       0.24899042      -0.25142050      -0.07121649       0.29255135       1.44044410       1.16494795       0.00000000
H       12.53308934      10.35800430      12.46311510       0.38302583      -0.01891304       0.03107131      -1.34612019       0.25591727      -1.04012576       0.00000000
H        9.88603917      10.66442177      12.78616213       0.05523814      -0.04978959      -0.10251797       1.46623689       1.96513084      -1.29334749       0.00000000
9
Lattice="23.296006118037088 0.0 0.0 0.0 22.649327160371357 0.0 0.0 0.0 22.71683509278982" Properties=species:S:1:pos:R:3:momenta:R:3:forces:R:3:magmoms:R:1 Energy:=T 4.1390592=T energy=-37.12432084033608 dipole="-0.0008850486189333923 -0.2833609659672614 0.056179853825582736" magmom=0.0 free_energy=-37.12432084033608 pbc="T T T"
C       12.47484476      11.83185772      10.78018513       1.51948496       0.34054034      -0.75767936       1.65805961       1.79569111      -1.61073374       0.00000000
C       11.65081388      10.80284392      11.60141792       1.08965449      -1.30618283       0.12842236       1.44864722      -3.08990123       0.33738385       0.00000000
O       10.51157279      11.54049178      12.20998669      -0.62612478       0.23642513       1.04444424      -2.12535593      -1.59242621       1.47206257       0.00000000
H       11.73639056      12.40797805       9.91616739       0.04483305       0.16396775       0.02679341       1.07530388      -0.53771505       1.24973975       0.00000000
H       13.43941815      11.29206822      10.14751748       0.00958948      -0.01516519      -0.13656767      -1.35801825       0.55114730       0.84950247       0.00000000
H       13.02698962      12.64363277      11.59016970       0.25597752      -0.05564455       0.06756792      -0.91488076      -0.77910664      -1.24788411       0.00000000
H       11.37343996       9.76937274      10.82026478       0.26255031      -0.17923347      -0.01280370       0.25963486       1.49915806       1.21373879       0.00000000
H       12.55014114      10.35738899      12.46338450       0.31449264      -0.00569150      -0.02079267      -1.44468960       0.28249044      -1.07188066       0.00000000
H        9.89048492      10.66434710      12.77961959       0.12505693       0.04508705      -0.16393812       1.37692527       1.89843790      -1.20780539       0.00000000
9
Lattice="23.296006118037088 0.0 0.0 0.0 22.649327160371357 0.0 0.0 0.0 22.71683509278982" Properties=species:S:1:pos:R:3:momenta:R:3:forces:R:3:magmoms:R:1 Energy:=T 4.1390592=T energy=-37.16819661714742 dipole="0.0013257568408213576 -0.2869195068870198 0.05371457759456592" magmom=0.0 free_energy=-37.16819661714742 pbc="T T T"
C       12.48122448      11.83343051      10.77692521       1.59674139       0.42602287      -0.83217184       1.48797860       1.68533053      -1.42275079       0.00000000
C       11.65541498      10.79719262      11.60197692       1.16086661      -1.44984023       0.14428759       1.45125423      -2.76011838       0.30868033       0.00000000
O       10.50949050      11.54109751      12.21330388      -0.72163681       0.15698193       1.11085328      -1.76408731      -1.64266158       1.23224771       0.00000000
H       11.73986159      12.41532379       9.91896817       0.09776473       0.13729211       0.08816473       1.08018125      -0.54857097       1.24942463       0.00000000
H       13.43826052      11.29198876      10.14187983      -0.05547874       0.01151617      -0.09569251      -1.29169106       0.53537155       0.81501675       0.00000000
H       13.03836713      12.63998937      11.59196877       0.21065655      -0.09430063       0.00540994      -0.93068066      -0.79504721      -1.28331482       0.00000000
H       11.38654303       9.76243356      10.82109317       0.27412546      -0.10536829       0.04702587       0.21172876       1.50878115       1.22264245       0.00000000
H       12.56373582      10.35744968      12.46108891       0.24209365       0.00833901      -0.07319724      -1.50354377       0.28886009      -1.06213954       0.00000000
H        9.89822564      10.66881538      12.77018679       0.18889780       0.13478273      -0.21980928       1.22280430       1.75415169      -1.06738105       0.00000000
9
Lattice="23.296006118037088 0.0 0.0 0.0 22.649327160371357 0.0 0.0 0.0 22.71683509278982" Properties=species:S:1:pos:R:3:momenta:R:3:forces:R:3:magmoms:R:1 Energy:=T 4.1390592=T energy=-37.255291376269625 dipole="0.004408011305225581 -0.29147566150297066 0.051142057844648724" magmom=0.0 free_energy=-37.255291376269625 pbc="T T T"
C       12.48790304      11.83534177      10.77337956       1.66412061       0.50482423      -0.89637592       1.25583948       1.52362033      -1.19176911       0.00000000
C       11.66030754      10.79098701      11.60259792       1.23141494      -1.57491814       0.15896162       1.42161669      -2.33330703       0.28887573       0.00000000
O       10.50714225      11.54145558      12.21680685      -0.79750290       0.07722866       1.16394997      -1.32533317      -1.60505284       0.92995692       0.00000000
H       11.74591748      12.42135680       9.92475881       0.14984517       0.11067438       0.14816884       1.04063965      -0.53535687       1.19406376       0.00000000
H       13.43401189      11.29319044      10.13819250      -0.11592602       0.03662912      -0.05752024      -1.16984463       0.48727839       0.73943541       0.00000000
H       13.04751754      12.63444342      11.59069688       0.16531499      -0.13257469      -0.05723352      -0.91571918      -0.76355005      -1.26765328       0.00000000
H       11.40015276       9.75910488      10.82484733       0.28287438      -0.03231827       0.10633672       0.14454499       1.46596363       1.19261534       0.00000000
H       12.57373253      10.35820160      12.45625162       0.16784634       0.02233137      -0.12412701      -1.51995689       0.28093746      -1.01182367       0.00000000
H        9.90889252      10.67748132      12.75819975       0.24350632       0.21482383      -0.26728667       1.00096494       1.50528380      -0.86599435       0.00000000
9
Lattice="23.296006118037088 0.0 0.0 0.0 22.649327160371357 0.0 0.0 0.0 22.71683509278982" Properties=species:S:1:pos:R:3:momenta:R:3:forces:R:3:magmoms:R:1 Energy:=T 4.1390592=T energy=-37.36971412385758 dipole="0.008291764974253758 -0.2969664811554543 0.048558038699159416" magmom=0.0 free_energy=-37.36971412385758 pbc="T T T"
C       12.49483380      11.83755901      10.76959458       1.71911179       0.57444383      -0.94837745       0.98351267       1.31143044      -0.92583825       0.00000000
C       11.66548560      10.78431281      11.60327693       1.30013660      -1.67702715       0.17268139       1.37686837      -1.82477842       0.26982097       0.00000000
O       10.50459418      11.54157166      12.22045003      -0.84962635       0.00209711       1.20038434      -0.79723933      -1.45445578       0.55372427       0.00000000
H       11.75446361      12.42610871       9.93340683       0.19891513       0.08559381       0.20437643       0.95758849      -0.48597471       1.09482317       0.00000000
H       13.42696384      11.29555818      10.13627463      -0.16905476       0.05862232      -0.02411718      -0.99366523       0.40832934       0.62080466       0.00000000
H       13.05447665      12.62707031      11.58639151       0.12138008      -0.16835813      -0.11784625      -0.87339915      -0.69362383      -1.20061997       0.00000000
H       11.41410839       9.75928423      10.83145541       0.28808607       0.03724644       0.16286212       0.06768532       1.36685216       1.10921306       0.00000000
H       12.58009200      10.35962581      12.44899306       0.09382250       0.03558750      -0.17171769      -1.49444384       0.25887871      -0.92616507       0.00000000
H        9.92195469      10.68974940      12.74414040       0.28543322       0.27987552      -0.30348626       0.70638315       1.14375254      -0.60812622       0.00000000
9
Lattice="23.296006118037088 0.0 0.0 0.0 22.649327160371357 0.0 0.0 0.0 22.71683509278982" Properties=species:S:1:pos:R:3:momenta:R:3:forces:R:3:magmoms:R:1 Energy:=T 4.1390592=T energy=-37.488068778755554 dipole="0.012827833876953978 -0.3032879176082088 0.04607856885952157" magmom=0.0 free_energy=-37.488068778755554 pbc="T T T"
C       12.50196208      11.84003962      10.76562365       1.75973381       0.63201704      -0.98591281       0.67069796       1.03306716      -0.60267769       0.00000000
C       11.67094017      10.77727214      11.60401012       1.36558132      -1.75199753       0.18509478       1.28817282      -1.22816738       0.23567768       0.00000000
O       10.50192591      11.54146846      12.22417669      -0.87345569      -0.06210142       1.21632004      -0.17313950      -1.15983829       0.09520973       0.00000000
H       11.76530123      12.42969769       9.94467476       0.24276571       0.06368817       0.25452110       0.82809564      -0.40606689       0.94716944       0.00000000
H       13.41753795      11.29890304      10.13584234      -0.21207769       0.07595146       0.00252740      -0.75831527       0.29734837       0.46421656       0.00000000
H       13.05934571      12.61803737      11.57921307       0.08046426      -0.19967695      -0.17397434      -0.79277604      -0.58174174      -1.08502931       0.00000000
H       11.42822599       9.76273445      10.84071782       0.28934308       0.10055364       0.21410169      -0.01649702       1.21114479       0.97736601       0.00000000