9
Lattice="23.296006118037088 0.0 0.0 0.0 22.649327160371357 0.0 0.0 0.0 22.71683509278982" Properties=species:S:1:pos:R:3:momenta:R:3:forces:R:3:magmoms:R:1 Energy:=T 4.1390592=T energy=-36.98634425743978 dipole="-0.00359344550769818 -0.30527383458902263 0.08389393629677162" magmom=0.0 free_energy=-36.98634425743978 pbc="T T T"
C       12.41935385      11.84012302      10.79785374      -0.65344652       1.54550575       0.79610118       0.44353380      -1.13046692       0.49644987       0.00000000
C       11.61415025      10.82753402      11.60188970       0.38214821       0.63210581       0.70931670      -0.39111902       0.45270704      -0.25935329       0.00000000
O       10.50473561      11.52841101      12.18890543      -0.89869859       0.70796309       0.16451330      -0.11654074       4.05218302      -0.99554019       0.00000000
H       11.79930214      12.27471535       9.99709962       0.10399863      -0.33672843      -0.11282241      -1.75672305       1.26958768      -2.17029370       0.00000000
H       13.31064075      11.34923790      10.31350214       0.34090853       0.12693798       0.01491207       1.65122790      -0.93060441      -0.88341923       0.00000000
H       12.79226058      12.66344273      11.45005169      -0.02977578       0.33612481      -0.03950134       0.78396867       1.89024516       1.50103619       0.00000000
H       11.26201639       9.99898471      10.90379631       0.12543391      -0.06421041      -0.48443515      -0.38083567      -1.76622157      -1.49516633       0.00000000
H       12.27711062      10.33837088      12.37459055       0.39835198      -0.30387992      -0.18765970       1.75190157      -1.20196996       1.60642295       0.00000000
H       10.00327493      10.85164694      12.72224862       0.01715320      -0.42093469       0.16339604      -2.03859108      -2.63530054       2.12933167       0.00000000
9
Lattice="23.296006118037088 0.0 0.0 0.0 22.649327160371357 0.0 0.0 0.0 22.71683509278982" Properties=species:S:1:pos:R:3:momenta:R:3:forces:R:3:magmoms:R:1 Energy:=T 4.1390592=T energy=-37.18988152772893 dipole="0.0033828901459401583 -0.3053434451306187 0.07991993530547067" magmom=0.0 free_energy=-37.18988152772893 pbc="T T T"
C       12.41672642      11.84632914      10.80115888      -0.61342694       1.48867028       0.81967477       1.18614463      -1.18398829       0.46351457       0.00000000
C       11.61567360      10.83016418      11.60476408       0.36542313       0.63809856       0.69152864      -0.28996002      -0.20867032      -0.46501248       0.00000000
O       10.50196801      11.53088978      12.18933541      -0.91655157       0.88472879       0.13113060      -0.61046882       3.14607369      -0.36387099       0.00000000
H       11.80226743      12.25982776       9.98900575       0.01592904      -0.27338229      -0.22201435      -1.82964906       1.30999513      -2.27622306       0.00000000
H       13.32922676      11.35430933      10.31317170       0.40922237       0.08810238      -0.02072508       1.13065001      -0.65085964      -0.56779745       0.00000000
H       12.79174781      12.68208164      11.44992302       0.00546407       0.42408408       0.02950785       0.65106916       1.69163431       1.30915770       0.00000000
H       11.26767233       9.99374286      10.87840388       0.11098239      -0.13799611      -0.54634486      -0.20765948      -1.23848130      -1.02592238       0.00000000
H       12.29861593      10.32212658      12.36736915       0.47609265      -0.35755939      -0.11541907       1.41385583      -0.98396655       1.33536153       0.00000000
H       10.00167153      10.82798432      12.73275761      -0.06932977      -0.53165441       0.25326071      -1.48317026      -1.87343034       1.53013938       0.00000000
9
Lattice="23.296006118037088 0.0 0.0 0.0 22.649327160371357 0.0 0.0 0.0 22.71683509278982" Properties=species:S:1:pos:R:3:momenta:R:3:forces:R:3:magmoms:R:1 Energy:=T 4.1390592=T energy=-37.39225334925776 dipole="0.009235712697238533 -0.30346154280853677 0.07627669666255654" magmom=0.0 free_energy=-37.39225334925776 pbc="T T T"
C       12.41433719      11.85229748      10.80455710      -0.53968300       1.43540021       0.83715367       1.81685745      -0.98527661       0.24826146       0.00000000
C       11.61713871      10.83275244      11.60754508       0.35601930       0.60921757       0.66528631      -0.09298295      -0.96742219      -0.60362831       0.00000000
O       10.49910838      11.53384287      12.18971052      -0.96018065       1.01388173       0.13073769      -1.16619541       2.11329509       0.34787082       0.00000000
H       11.80085439      12.24807496       9.97546491      -0.07058987      -0.21098371      -0.32992643      -1.69357568       1.23100156      -2.11817525       0.00000000
H       13.35051840      11.35782325      10.31148253       0.45095108       0.06323808      -0.04076981       0.56862734      -0.36166486      -0.24846469       0.00000000
H       12.79279304      12.70476861      11.45292716       0.03262810       0.49845621       0.08634342       0.45510495       1.33694933       1.00530166       0.00000000
H       11.27283134       9.98553735      10.85055644       0.10496962      -0.18574928      -0.58450153      -0.03719270      -0.70612465      -0.52789437       0.00000000
H       12.32350459      10.30352766      12.36334326       0.53455575      -0.39857153      -0.05865271       0.96687973      -0.68613060       0.97627972       0.00000000
H        9.99651893      10.79983861      12.74692821      -0.12679870      -0.60134784       0.31167837      -0.85708082      -0.96462687       0.84874605       0.00000000
9
Lattice="23.296006118037088 0.0 0.0 0.0 22.649327160371357 0.0 0.0 0.0 22.71683509278982" Properties=species:S:1:pos:R:3:momenta:R:3:forces:R:3:magmoms:R:1 Energy:=T 4.1390592=T energy=-37.5339594588154 dipole="0.013801060733232782 -0.3003104925830843 0.07317025306821676" magmom=0.0 free_energy=-37.5339594588154 pbc="T T T"
C       12.41231284      11.85806796      10.80800519      -0.43918526       1.39654720       0.84029619       2.27561396      -0.59689659      -0.12029170       0.00000000
C       11.61858515      10.83514641      11.61020485       0.35757998       0.54324016       0.63341209       0.15653693      -1.71931118      -0.69435446       0.00000000
O       10.49607292      11.53711457      12.19013808      -1.02956980       1.09317457       0.16403197      -1.65947122       1.11566983       1.00793986       0.00000000
H       11.79538863      12.23926795       9.95685529      -0.14620367      -0.15469342      -0.42452618      -1.38557125       1.06125253      -1.73411778       0.00000000
H       13.37317075      11.36047171      10.30919879       0.46565522       0.05187413      -0.04561856       0.03015509      -0.10109844       0.05101402       0.00000000
H       12.79492733      12.73065488      11.45833696       0.04939682       0.55389488       0.12700874       0.22775134       0.92062561       0.65067238       0.00000000
H       11.27790134       9.97564209      10.82144574       0.10677023      -0.20834641      -0.59854262       0.11051713      -0.21407601      -0.04388729       0.00000000
H       12.35070698      10.28328684      12.36165360       0.57027232      -0.42419942      -0.02009007       0.48757154      -0.35748925       0.59406876       0.00000000
H        9.98931533      10.76938456      12.76312984      -0.15492908      -0.62758017       0.33800110      -0.28844509      -0.10360663       0.22316885       0.00000000
9
Lattice="23.296006118037088 0.0 0.0 0.0 22.649327160371357 0.0 0.0 0.0 22.71683509278982" Properties=species:S:1:pos:R:3:momenta:R:3:forces:R:3:magmoms:R:1 Energy:=T 4.1390592=T energy=-37.58338312165126 dipole="0.01712928991488457 -0.29667740642802626 0.07071842212773737" magmom=0.0 free_energy=-37.58338312165126 pbc="T T T"
C       12.41074550      11.86371856      10.81142912      -0.32048903       1.37972918       0.82306846       2.55793674      -0.08796701      -0.58125615       0.00000000
C       11.62006303      10.83719510      11.61272517       0.37163305       0.44240462       0.59777003       0.41573249      -2.38691596      -0.75706245       0.00000000
O       10.49278727      11.54055449      12.19071760      -1.12015801       1.12646904       0.22688549      -2.02946409       0.24014822       1.55158266       0.00000000
H       11.78660722      12.23300050       9.93409595      -0.20407151      -0.10815249      -0.49638536      -0.97092435       0.83398830      -1.19213329       0.00000000
H       13.39589527      11.36287825      10.30703712       0.45585220       0.05242466      -0.03690820      -0.42935397       0.12351723       0.30368954       0.00000000
H       12.79760663      12.75874421      11.46530382       0.05495341       0.58812070       0.15008007      -0.00147547       0.47311896       0.28883880       0.00000000
H       11.28323581       9.96523454      10.79223003       0.11494968      -0.20849780      -0.58965806       0.22256666       0.20791110       0.40568471       0.00000000
H       12.37907613      10.26219054      12.36138554       0.58272708      -0.43352303       0.00046900       0.01961116      -0.02218665       0.24313842       0.00000000
H        9.98142150      10.73868258      12.77986552      -0.15792663      -0.61431615       0.33564271       0.16637870       0.64374432      -0.31920728       0.00000000
9
Lattice="23.296006118037088 0.0 0.0 0.0 22.649327160371357 0.0 0.0 0.0 22.71683509278982" Properties=species:S:1:pos:R:3:momenta:R:3:forces:R:3:magmoms:R:1 Energy:=T 4.1390592=T energy=-37.53827944134897 dipole="0.019444200959752106 -0.2932936659560133 0.06891741220524494" magmom=0.0 free_energy=-37.53827944134897 pbc="T T T"
C       12.40969186      11.86935150      10.81473631      -0.19134153       1.38867260       0.78226687       2.70121046       0.45216095      -1.08026728       0.00000000
C       11.62162440      10.83876443      11.61509346       0.39791365       0.31208294       0.55943289       0.65446682      -2.92004665      -0.80410324       0.00000000
O       10.48919563      11.54403061      12.19153106      -1.22533278       1.12032291       0.31306712      -2.25346531      -0.49043075       1.95790756       0.00000000
H       11.77550240      12.22872877       9.90848384      -0.24051880      -0.07305076      -0.53972204      -0.51328311       0.59542519      -0.57262416       0.00000000
H       13.41759235      11.36558036      10.30560218       0.42525653       0.06300902      -0.01707461      -0.81656338       0.30749942       0.50397415       0.00000000
H       12.80028240      12.78796570      11.47296187       0.04973054       0.60031475       0.15592899      -0.21121074       0.02344726      -0.05065872       0.00000000
H       11.28910289       9.95532452      10.76398512       0.12788580      -0.18979277      -0.56096086       0.30421833       0.55379566       0.76292339       0.00000000
H       12.40749220      10.24104116      12.36169930       0.57278735      -0.42684524       0.00509883      -0.42437672       0.29411947      -0.05460240       0.00000000
H        9.97392580      10.70952107      12.79583734      -0.14166318      -0.56838837       0.31003027       0.49590217       1.22652763      -0.72378310       0.00000000
9
Lattice="23.296006118037088 0.0 0.0 0.0 22.649327160371357 0.0 0.0 0.0 22.71683509278982" Properties=species:S:1:pos:R:3:momenta:R:3:forces:R:3:magmoms:R:1 Energy:=T 4.1390592=T energy=-37.42108282641229 dipole="0.021198030233751986 -0.2908198579343189 0.06763969706999652" magmom=0.0 free_energy=-37.42108282641229 pbc="T T T"
C       12.40918609      11.87512600      10.81777735      -0.05628727       1.43483509       0.70588441       2.74477486       0.92221667      -1.54011629       0.00000000
C       11.62333710      10.83970939      11.61729631       0.43962671       0.15043042       0.51781883       0.84602259      -3.28482208      -0.85112502       0.00000000
O       10.48525798      11.54738754      12.19266068      -1.33993349       1.06710773       0.42263045      -2.33006896      -1.07643822       2.22546526       0.00000000
H       11.76369779      12.22562592       9.88224038      -0.24458865      -0.05402404      -0.53787925      -0.09414866       0.39331835       0.03008928       0.00000000
H       13.43696878      11.36919406      10.30556295       0.37065236       0.08517464       0.01506042      -1.10061838       0.44823860       0.64607835       0.00000000
H       12.80224072      12.81674239      11.48014509       0.03064659       0.58144135       0.13957360      -0.38873013      -0.37335852      -0.31983517       0.00000000
H       11.29574551       9.94702491      10.73791831       0.14470412      -0.15034551      -0.50846423       0.34090942       0.81422994       1.08028945       0.00000000
H       12.43439080      10.22094139      12.36158827       0.53272891      -0.39904497      -0.00934704      -0.78736936       0.54895962      -0.28783170       0.00000000
H        9.96786048      10.68377983      12.80975221      -0.10718304      -0.48776543       0.26073692       0.70453009       1.65107527      -1.01195494       0.00000000
9
Lattice="23.296006118037088 0.0 0.0 0.0 22.649327160371357 0.0 0.0 0.0 22.71683509278982" Properties=species:S:1:pos:R:3:momenta:R:3:forces:R:3:magmoms:R:1 Energy:=T 4.1390592=T energy=-37.26381541904924 dipole="0.02268870261440705 -0.28941740241763836 0.06666953768593378" magmom=0.0 free_energy=-37.26381541904924 pbc="T T T"
C       12.40923154      11.88108570      10.82050909       0.07763046       1.48934952       0.62054673       2.70862617       1.29772111      -1.93500677       0.00000000
C       11.62521970      10.83999467      11.61932822       0.48473404      -0.01608143       0.47486971       0.99083901      -3.49587713      -0.89785002       0.00000000
O       10.48096902      11.55058219      12.19412583      -1.45327619       1.00258994       0.53571292      -2.28547505      -1.55085695       2.37948183       0.00000000
H       11.75166788      12.22346427       9.85606892      -0.24016961      -0.03890963      -0.52290886       0.27410093       0.22217110       0.57953535       0.00000000
H       13.45371145      11.37388040      10.30706978       0.31112773       0.10953756       0.04917822      -1.32334506       0.54386897       0.74326744       0.00000000
H       12.80326882      12.84462563      11.48656295       0.00802210       0.55494221       0.11851503      -0.53258476      -0.70574016      -0.53771253       0.00000000
H       11.30320392       9.94067375      10.71443662       0.16179595      -0.10607530      -0.44980002       0.35510438       0.98854244       1.30863594       0.00000000
H       12.45940523      10.20215528      12.36078846       0.48678246      -0.36688740      -0.02745588      -1.08366287       0.76056195      -0.44959694       0.00000000
H        9.96348109      10.66198961      12.82124547      -0.06958321      -0.39884684       0.20638778       0.82661117       1.96986963      -1.20125226       0.00000000
9
Lattice="23.296006118037088 0.0 0.0 0.0 22.649327160371357 0.0 0.0 0.0 22.71683509278982" Properties=species:S:1:pos:R:3:momenta:R:3:forces:R:3:magmoms:R:1 Energy:=T 4.1390592=T energy=-37.09897165650988 dipole="0.024247195979965067 -0.28919444747604967 0.06577581246027997" magmom=0.0 free_energy=-37.09897165650988 pbc="T T T"
C       12.40982095      11.88730602      10.82285223       0.20802544       1.55974155       0.51788719       2.60132107       1.56878464      -2.24549733       0.00000000
C       11.62730129      10.83957788      11.62117983       0.53585672      -0.18946093       0.42963192       1.09098000      -3.56448701      -0.94432415       0.00000000
O       10.47633549      11.55354301      12.19594972      -1.56211127       0.91689486       0.65394137      -2.14650947      -1.93881998       2.43501986       0.00000000
H       11.74029389      12.22183428       9.83128429      -0.21911449      -0.03112875      -0.48341276       0.58330596       0.09468209       1.02882580       0.00000000
H       13.46728736      11.37986821      10.31035524       0.24248759       0.13778128       0.08704836      -1.47182021       0.60627225       0.79888094       0.00000000
H       12.80302246      12.87082004      11.49169407      -0.02082902       0.51359123       0.08759794      -0.64229120      -0.97815534      -0.72129356       0.00000000
H       11.31151210       9.93668816      10.69408648       0.17916953      -0.05447710      -0.38093800       0.35238304       1.11264080       1.49556474       0.00000000
H       12.48182647      10.18518918      12.35891277       0.42800632      -0.32551772      -0.05204061      -1.30982049       0.92409504      -0.55154308       0.00000000
H        9.96107978      10.64491326      12.82986415      -0.02722249      -0.29712178       0.14433829       0.89840301       2.17258042      -1.32552850       0.00000000
9
Lattice="23.296006118037088 0.0 0.0 0.0 22.649327160371357 0.0 0.0 0.0 22.71683509278982" Properties=species:S:1:pos:R:3:momenta:R:3:forces:R:3:magmoms:R:1 Energy:=T 4.1390592=T energy=-36.95681719094946 dipole="0.026152222624318468 -0.29012842122723637 0.06471578864794186" magmom=0.0 free_energy=-36.95681719094946 pbc="T T T"
C       12.41093279      11.89384139      10.82474442       0.33171865       1.64132409       0.40247765       2.43571675       1.75342131      -2.45421256       0.00000000
C       11.62960198      10.83844524      11.62284179       0.59089302      -0.36301093       0.38202540       1.15020959      -3.50281985      -0.99430956       0.00000000
O       10.47137833      11.55621153      12.19814074      -1.66242655       0.81398428       0.77287081      -1.93853199      -2.25190702       2.40802738       0.00000000
H       11.73031575      12.22043086       9.80896162      -0.18452069      -0.02859911      -0.42393291       0.82542369       0.00832999       1.39331400       0.00000000
H       13.47734123      11.38730682      10.31555241       0.16856379       0.16835039       0.12694479      -1.53850646       0.63856373       0.82578259       0.00000000
H       12.80123909      12.89467374      11.49509914      -0.05425262       0.46044444       0.04927142      -0.71878527      -1.18608972      -0.83944006       0.00000000
H       11.32066352       9.93536510      10.67731521       0.19598961       0.00207758      -0.30432045       0.33256463       1.19038004       1.62445701       0.00000000
H       12.50111332      10.17043443      12.35571724       0.35920096      -0.27697214      -0.08042595      -1.49207298       1.05277893      -0.60436527       0.00000000
H        9.96082833      10.63303587      12.83531086       0.01717734      -0.18764202       0.07793144       0.90964784       2.28565701      -1.37869257       0.00000000
9
Lattice="23.296006118037088 0.0 0.0 0.0 22.649327160371357 0.0 0.0 0.0 22.71683509278982" Properties=species:S:1:pos:R:3:momenta:R:3:forces:R:3:magmoms:R:1 Energy:=T 4.1390592=T energy=-36.8599407137078 dipole="0.028575265176815214 -0.29211795695409193 0.06328135294302824" magmom=0.0 free_energy=-36.8599407137078 pbc="T T T"
C       12.41253378      11.90072890      10.82614373       0.44622619       1.72961691       0.27933780       2.22726193       1.84204093      -2.56029095       0.00000000
C       11.63213366      10.83660914      11.62430407       0.64785510      -0.53060258       0.33176327       1.16940142      -3.32185130      -1.05246624       0.00000000
O       10.46612891      11.55854052      12.20069482      -1.75140690       0.69744939       0.88887129      -1.68492782      -2.49362936       2.31574663       0.00000000
H       11.72231284      12.21904737       9.78997314      -0.13959623      -0.02964150      -0.34866242       1.00399127      -0.05077836       1.67185280       0.00000000
H       13.48371346      11.39627351      10.32272568       0.09309286       0.19994369       0.16724723      -1.53482236       0.64797937       0.81541446       0.00000000
H       12.79773568      12.91568914      11.49649544      -0.09064890       0.39879505       0.00614416      -0.76334485      -1.32439810      -0.91678915       0.00000000
H       11.33061077       9.93689061      10.66443125       0.21151391       0.06130907      -0.22256683       0.29961631       1.22164594       1.70471573       0.00000000
H       12.51682966      10.15819897      12.35107547       0.28278237      -0.22277351      -0.11075077      -1.61984679       1.15429903      -0.63052277       0.00000000
H        9.96275367      10.62662804      12.83745836       0.06110228      -0.07440471       0.01027002       0.87906469       2.32559518      -1.37661728       0.00000000
9
Lattice="23.296006118037088 0.0 0.0 0.0 22.649327160371357 0.0 0.0 0.0 22.71683509278982" Properties=species:S:1:pos:R:3:momenta:R:3:forces:R:3:magmoms:R:1 Energy:=T 4.1390592=T energy=-36.82231139454387 dipole="0.03159963368699674 -0.29503455016416713 0.06134061292939674" magmom=0.0 free_energy=-36.82231139454387 pbc="T T T"
C       12.41458206      11.90798634      10.82702886       0.54965133       1.82012443       0.15352269       1.98441871       1.84360834      -2.56315479       0.00000000
C       11.63490019      10.83410593      11.62555498       0.70501077      -0.68677492       0.27856609       1.15809314      -3.03780230      -1.11383044       0.00000000
O       10.46062545      11.56049356      12.20359803      -1.82679683       0.57081452       0.99878364      -1.38510252      -2.66319858       2.16010677       0.00000000
H       11.71671246      12.21754237       9.77498539      -0.08716520      -0.03278573      -0.26165724       1.13110614      -0.07726077       1.87117382       0.00000000
H       13.48641288      11.40679081      10.33185022       0.01933373       0.23127573       0.20605773      -1.46879886       0.62792489       0.76502745       0.00000000
H       12.79240559      12.93353527      11.49569787      -0.12855485       0.33163080      -0.03957106      -0.78026246      -1.41066577      -0.94482710       0.00000000
H       11.34127500       9.94133951      10.65562666       0.22514698       0.12104751      -0.13792412       0.25554979       1.21102451       1.74210669       0.00000000
H       12.52866972      10.14872574      12.34492487       0.20162376      -0.16470623      -0.14160446      -1.68509583       1.21031798      -0.62590191       0.00000000
H        9.96678259      10.62578533      12.83631164       0.10251418       0.03898707      -0.05601572       0.80731168       2.29194764      -1.32267217       0.00000000
9
Lattice="23.296006118037088 0.0 0.0 0.0 22.649327160371357 0.0 0.0 0.0 22.71683509278982" Properties=species:S:1:pos:R:3:momenta:R:3:forces:R:3:magmoms:R:1 Energy:=T 4.1390592=T energy=-36.84765174150651 dipole="0.035201815302226366 -0.29875311330753507 0.05882593192520907" magmom=0.0 free_energy=-36.84765174150651 pbc="T T T"
C       12.41702887      11.91561403      10.82739925       0.63983352       1.90880366       0.02940531       1.68798251       1.76758956      -2.49115595       0.00000000
C       11.63789930      10.83099264      11.62658220       0.76099057      -0.82676981       0.22239176       1.12151761      -2.66307274      -1.17370179       0.00000000
O       10.45491316      11.56204508      12.20682692      -1.88647352       0.43794250       1.09987990      -1.04505292      -2.74761879       1.95673717       0.00000000
H       11.71381882      12.21585249       9.76447533      -0.02965025      -0.03689492      -0.16676849       1.21101927      -0.09007412       1.99288819       0.00000000
H       13.48559748      11.41881072      10.34280546      -0.04967770       0.26111937       0.24157778      -1.34148584       0.58736830       0.68142071       0.00000000
H       12.78520835      12.94800569      11.49263934      -0.16675320       0.26161602      -0.08588245      -0.77525160      -1.44047798      -0.94106627       0.00000000
H       11.35255075       9.94868637      10.65099091       0.23618112       0.17938240      -0.05250615       0.19378257       1.16448985       1.73628553       0.00000000
H       12.53647737      10.14214878      12.33727649       0.11833434      -0.10474709      -0.17131140      -1.70661794       1.23133967      -0.58382479       0.00000000
H        9.97274340      10.63042723      12.83199978       0.13944354       0.14871724      -0.11831190       0.69652649       2.17648661      -1.21415438       0.00000000
9
Lattice="23.296006118037088 0.0 0.0 0.0 22.649327160371357 0.0 0.0 0.0 22.71683509278982" Properties=species:S:1:pos:R:3:momenta:R:3:forces:R:3:magmoms:R:1 Energy:=T 4.1390592=T energy=-36.93021466258137 dipole="0.039276523608746686 -0.3031616833413155 0.055752104588514" magmom=0.0 free_energy=-36.93021466258137 pbc="T T T"
C       12.41981467      11.92359670      10.82726934       0.71375061       1.99222378      -0.08984117       1.32207092       1.62944627      -2.36480194       0.00000000
C       11.64112364      10.82734454      11.62737372       0.81447997      -0.94621337       0.16353899       1.05667860      -2.20091061      -1.22290201       0.00000000
O       10.44904332      11.56318234      12.21035082      -1.92876082       0.30346404       1.18960941      -0.67697164      -2.72861599       1.69722999       0.00000000
H       11.71382313      12.21394706       9.75873424       0.03068254      -0.04133797      -0.06767311       1.24585382      -0.09085586       2.04247595       0.00000000
H       13.48157192      11.43223621      10.35539134      -0.11056818       0.28802567       0.27225518      -1.13809771       0.50831071       0.56782523       0.00000000
H       12.77615593      12.95902906      11.48732885      -0.20429824       0.19143455      -0.13108637      -0.75365814      -1.41745329      -0.89972868       0.00000000
H       11.36429022       9.95881985      10.65051007       0.24412990       0.23442908       0.03139612       0.12990770       1.07712240       1.68038473       0.00000000
H       12.54020109      10.13851841      12.32823102       0.03492987      -0.04453282      -0.19811070      -1.68978085       1.22070711      -0.50749696       0.00000000
H        9.98037100      10.64027743      12.82478246       0.16955858       0.25051552      -0.17358794       0.52981866       1.96894551      -1.03679761       0.00000000
9
Lattice="23.296006118037088 0.0 0.0 0.0 22.649327160371357 0.0 0.0 0.0 22.71683509278982" Properties=species:S:1:pos:R:3:momenta:R:3:forces:R:3:magmoms:R:1 Energy:=T 4.1390592=T energy=-37.054763091176 dipole="0.0436395897742213 -0.30817208006747066 0.052223512448243616" magmom=0.0 free_energy=-37.054763091176 pbc="T T T"
C       12.42286598      11.93190660      10.82666452       0.76819938       2.06750258      -0.20120558       0.89519316       1.43605873      -2.17018236       0.00000000
C       11.64456018      10.82325443      11.62791964       0.86405297      -1.04086531       0.10287708       0.96203440      -1.65350785      -1.24737358       0.00000000
O       10.44307141      11.56390822      12.21413061      -1.95204598       0.17302620       1.26466760      -0.27124685      -2.58307678       1.35929153       0.00000000
H       11.71680875      12.21182421       9.75788077       0.09171743      -0.04540906       0.03222921       1.23961046      -0.07492691       2.02574893       0.00000000
H       13.47482290      11.44687807      10.36933601      -0.15980451       0.31047734       0.29669499      -0.86690553       0.40596679       0.42741318       0.00000000
H       12.76530002      12.96666049      11.47986532      -0.24034430       0.12406294      -0.17329632      -0.71421021      -1.32605502      -0.81914597       0.00000000
H       11.37634057       9.97153087      10.65405038       0.24851742       0.28400721       0.11125759       0.04876133       0.94179962       1.57173589       0.00000000
H       12.53988119      10.13780918      12.31797112      -0.04638717       0.01428726      -0.22047093      -1.62161333       1.17456536      -0.40305663       0.00000000
H        9.98926644      10.65483930      12.81508409       0.19019265       0.33963696      -0.21850951       0.31044244       1.66025962      -0.79249982       0.00000000
9
Lattice="23.296006118037088 0.0 0.0 0.0 22.649327160371357 0.0 0.0 0.0 22.71683509278982" Properties=species:S:1:pos:R:3:momenta:R:3:forces:R:3:magmoms:R:1 Energy:=T 4.1390592=T energy=-37.19720165633118 dipole="0.0480486063443272 -0.3136959029563821 0.04842095020410372" magmom=0.0 free_energy=-37.19720165633118 pbc="T T T"
C       12.42609707      11.94050490      10.82562387       0.80076681       2.13202281      -0.30100499       0.43101855       1.19133553      -1.89385142       0.00000000
C       11.64818993      10.81883225      11.62821505       0.90807887      -1.10640828       0.04175971       0.83078912      -1.01553455      -1.24144955       0.00000000
O       10.43705860      11.56424465      12.21811533      -1.95406536       0.05347717       1.32072863       0.18901328      -2.28520153       0.92362687       0.00000000
H       11.72276075      12.20952206       9.76187489       0.15143435      -0.04832371       0.12970712       1.19218332      -0.04376345       1.94374866       0.00000000
H       13.46599939      11.46249141      10.38430348      -0.19390859       0.32722363       0.31356340      -0.52188136       0.27597618       0.25950276       0.00000000
H       12.75273501      12.97111867      11.47044158      -0.27367523       0.06273684      -0.21058460      -0.64309291      -1.17126760      -0.69930825       0.00000000
H       11.38850759       9.98649560      10.66135183       0.24833805       0.32594990       0.18403493      -0.05606567       0.76619146       1.39190438       0.00000000