9
Lattice="23.296006118037088 0.0 0.0 0.0 22.649327160371357 0.0 0.0 0.0 22.71683509278982" Properties=species:S:1:pos:R:3:momenta:R:3:forces:R:3:magmoms:R:1 Energy:=T 4.1390592=T energy=-36.96778152509754 dipole="-0.00852190655046131 -0.3029518579610027 0.08485966130983816" magmom=0.0 free_energy=-36.96778152509754 pbc="T T T"
C       12.42565450      11.83340041      10.79444328       0.87121623      -0.09371943      -0.04707243      -0.21619068      -0.93382890       0.12480488       0.00000000
C       11.61534283      10.82471503      11.59908764       0.67509354      -0.05306478       0.02887519      -0.33844680       0.62491663      -0.06313315       0.00000000
O       10.50931705      11.52643901      12.18957066       0.59069034       0.06653968       0.38202035      -0.24043298       4.09159314      -0.96273246       0.00000000
H       11.79392950      12.29541315      10.00054498       0.00122354       0.08358977      -0.03195751      -1.45161296       1.08709876      -1.75685529       0.00000000
H       13.30253264      11.34279787      10.30113719       0.17953842      -0.00902042      -0.24312474       1.85646715      -1.08469137      -1.05689532       0.00000000
H       12.81071084      12.63591218      11.45730344       0.35111742      -0.22588682       0.11233693       0.87444761       2.01333499       1.62336777       0.00000000
H       11.26595652       9.98802929      10.92302774       0.20454799      -0.29446727      -0.09383558      -0.45220788      -1.98648714      -1.66230724       0.00000000
H       12.27584301      10.36061193      12.38528981       0.37479785       0.15083856       0.03308490       1.85215870      -1.27341739       1.65341657       0.00000000
H        9.99253337      10.85519180      12.71933552      -0.20128546      -0.34628744       0.10077608      -1.95632801      -2.55821957       2.01401049       0.00000000
9
Lattice="23.296006118037088 0.0 0.0 0.0 22.649327160371357 0.0 0.0 0.0 22.71683509278982" Properties=species:S:1:pos:R:3:momenta:R:3:forces:R:3:magmoms:R:1 Energy:=T 4.1390592=T energy=-37.16909556515891 dipole="-0.005990437761376834 -0.30111096770168333 0.08148809952731209" magmom=0.0 free_energy=-37.16909556515891 pbc="T T T"
C       12.42919523      11.83292342      10.79426333       0.86589946      -0.13792877      -0.04939570      -0.00031900      -0.86646445      -0.21941321       0.00000000
C       11.61806933      10.82456080      11.59919937       0.66152605      -0.03581162       0.02503100      -0.21404882       0.07766685      -0.09341011       0.00000000
O       10.51111222      11.52695171      12.19067081       0.56401713       0.24740961       0.35006375      -0.84575399       3.27379608      -0.33860468       0.00000000
H       11.79225227      12.30078666       9.99688582      -0.06560114       0.13511607      -0.11247678      -1.26962325       1.01115636      -1.52205244       0.00000000
H       13.31350166      11.34106054      10.28802669       0.26122761      -0.05821212      -0.28994331       1.47008180      -0.91849406      -0.84965159       0.00000000
H       12.82886485      12.62731508      11.46471927       0.39280302      -0.12926874       0.18952120       0.82307410       1.92114865       1.51973155       0.00000000
H       11.27538179       9.97130494      10.91646678       0.18564121      -0.38291941      -0.16746356      -0.31771431      -1.61546270      -1.33597291       0.00000000
H       12.29632064      10.36643770      12.38888013       0.45963566       0.09173698       0.10827747       1.60260851      -1.13331831       1.40857695       0.00000000
H        9.98038526      10.83525850      12.72665546      -0.28138643      -0.45278889       0.18332611      -1.30554533      -1.77873512       1.34759367       0.00000000
9
Lattice="23.296006118037088 0.0 0.0 0.0 22.649327160371357 0.0 0.0 0.0 22.71683509278982" Properties=species:S:1:pos:R:3:momenta:R:3:forces:R:3:magmoms:R:1 Energy:=T 4.1390592=T energy=-37.382354422139414 dipole="-0.003882110120934037 -0.2977984196788651 0.07806846379054817" magmom=0.0 free_energy=-37.382354422139414 pbc="T T T"
C       12.43273590      11.83227242      10.79403932       0.87334443      -0.17382693      -0.06947716       0.30349333      -0.59538127      -0.59834436       0.00000000
C       11.62075284      10.82442216      11.59929235       0.65591836      -0.04944393       0.02098657      -0.01430746      -0.63280206      -0.07128742       0.00000000
O       10.51277987      11.52795800      12.19171990       0.50644728       0.38605327       0.34968257      -1.49860677       2.37205436       0.32308226       0.00000000
H       11.78753684      12.30857985       9.98958441      -0.12094143       0.18110711      -0.17839381      -0.98394548       0.86169184      -1.16222210       0.00000000
H       13.32798858      11.33712526      10.27288298       0.32184773      -0.09766038      -0.32532012       0.99849209      -0.68791883      -0.59096366       0.00000000
H       12.84898846      12.62331528      11.47577179       0.42982925      -0.04139008       0.25803306       0.68470909       1.65744829       1.27020991       0.00000000
H       11.28404677       9.95071480      10.90670886       0.17385889      -0.45046450      -0.22323987      -0.16208578      -1.13510999      -0.93535142       0.00000000
H       12.32063330      10.36955146      12.39584117       0.52923137       0.04098621       0.16895108       1.23146938      -0.93335582       1.06217518       0.00000000
H        9.96511300      10.81106871      12.73720017      -0.32844593      -0.51856669       0.23227104      -0.61081272      -0.89986964       0.64554323       0.00000000
9
Lattice="23.296006118037088 0.0 0.0 0.0 22.649327160371357 0.0 0.0 0.0 22.71683509278982" Properties=species:S:1:pos:R:3:momenta:R:3:forces:R:3:magmoms:R:1 Energy:=T 4.1390592=T energy=-37.54489993262974 dipole="-0.002368090323573683 -0.29361645307920703 0.07479631358403334" magmom=0.0 free_energy=-37.54489993262974 pbc="T T T"
C       12.43633752      11.83150185      10.79369514       0.89680591      -0.19283624      -0.10780474       0.65190526      -0.17871632      -0.96243242       0.00000000
C       11.62343348      10.82415644      11.59937100       0.66130121      -0.09908157       0.01902315       0.23350794      -1.38854309      -0.00866692       0.00000000
O       10.51422159      11.52932192      12.19281771       0.41872399       0.48157324       0.37980745      -2.07366318       1.51771181       0.90366387       0.00000000
H       11.78046684      12.31843507       9.97950182      -0.16069642       0.21840431      -0.22496267      -0.63495806       0.65712573      -0.73415629       0.00000000
H       13.34486488      11.33154379      10.25632510       0.35871246      -0.12533290      -0.34747233       0.50271435      -0.43896216      -0.31111914       0.00000000
H       12.87075058      12.62328173      11.48986391       0.45817218       0.03075222       0.31142733       0.46947236       1.28033194       0.90411280       0.00000000
H       11.29232388       9.92740836      10.89471264       0.16968191      -0.49432929      -0.25855370      -0.00800907      -0.65115298      -0.50269894       0.00000000
H       12.34789285      10.37043170      12.40534397       0.57917285       0.00084827       0.21132009       0.80224877      -0.70114227       0.66317664       0.00000000
H        9.94837907      10.78472554      12.74928966      -0.34289069      -0.54321435       0.24854073       0.02259289      -0.10383289       0.01699112       0.00000000
9
Lattice="23.296006118037088 0.0 0.0 0.0 22.649327160371357 0.0 0.0 0.0 22.71683509278982" Properties=species:S:1:pos:R:3:momenta:R:3:forces:R:3:magmoms:R:1 Energy:=T 4.1390592=T energy=-37.621095918055005 dipole="-0.001569281949010377 -0.2892104259052313 0.07180575534499856" magmom=0.0 free_energy=-37.621095918055005 pbc="T T T"
C       12.44007005      11.83069539      10.79315768       0.93740425      -0.18969839      -0.16278426       1.00134126       0.30649570      -1.27644488       0.00000000
C       11.62616102      10.82361187      11.59944792       0.67928541      -0.18458966       0.02072868       0.49884509      -2.09351947       0.07811947       0.00000000
O       10.51535066      11.53091465      12.19405175       0.30620791       0.53786423       0.43515121      -2.50821909       0.77457117       1.35004568       0.00000000
H       11.77187740      12.32986278       9.96766239      -0.18304266       0.24488205      -0.25017495      -0.27502596       0.42110113      -0.29253872       0.00000000
H       13.36294417      11.32491190      10.23902272       0.37155650      -0.14103620      -0.35596180       0.02032095      -0.20050823      -0.03458921       0.00000000
H       12.89363614      12.62631200      11.50611956       0.47509288       0.08313106       0.34543284       0.21957282       0.85264017       0.48066042       0.00000000
H       11.30058182       9.90254371      10.88151348       0.17232106      -0.51401904      -0.27324361       0.11548051      -0.15065360      -0.09550392       0.00000000
H       12.37707217      10.36963412      12.41643375       0.60743694      -0.02797316       0.23362996       0.34872237      -0.47252439       0.24532665       0.00000000
H        9.93169920      10.75813390      12.76141981      -0.32894550      -0.53166967       0.23724396       0.54528346       0.57395543      -0.47701848       0.00000000
9
Lattice="23.296006118037088 0.0 0.0 0.0 22.649327160371357 0.0 0.0 0.0 22.71683509278982" Properties=species:S:1:pos:R:3:momenta:R:3:forces:R:3:magmoms:R:1 Energy:=T 4.1390592=T energy=-37.60595632623474 dipole="-0.0014844767267847211 -0.2851653447567241 0.06914510109811638" magmom=0.0 free_energy=-37.60595632623474 pbc="T T T"
C       12.44400369      11.82995048      10.79236388       0.99436553      -0.16275015      -0.23148153       1.31823731       0.79089133      -1.52104688       0.00000000
C       11.62898873      10.82264685      11.59954052       0.71006181      -0.30190052       0.02687338       0.75443209      -2.68361596       0.17210548       0.00000000
O       10.51610157      11.53262417      12.19548935       0.17613985       0.56080084       0.50896552      -2.78841560       0.15945406       1.65582252       0.00000000
H       11.76262982      12.34229818       9.95512293      -0.18811450       0.26001254      -0.25439742       0.06849029       0.19504300       0.12059109       0.00000000
H       13.38107208      11.31780019      10.22163756       0.36203513      -0.14549794      -0.35139776      -0.40805036       0.01881734       0.22044634       0.00000000
H       12.91704713      12.63138263      11.52352543       0.47884078       0.11420486       0.35825814      -0.06695102       0.41274804       0.04161186       0.00000000
H       11.30911611       9.87731856      10.86808577       0.18033327      -0.51086368      -0.26963869       0.21079283       0.27914639       0.24230358       0.00000000
H       12.40708598      10.36770579      12.42811060       0.61411933      -0.04603137       0.23610487      -0.07660213      -0.26284271      -0.14454336       0.00000000
H        9.91632420      10.73291573      12.77240846      -0.29259155      -0.49080248       0.20500517       0.93512283       1.09023934      -0.83581012       0.00000000
9
Lattice="23.296006118037088 0.0 0.0 0.0 22.649327160371357 0.0 0.0 0.0 22.71683509278982" Properties=species:S:1:pos:R:3:momenta:R:3:forces:R:3:magmoms:R:1 Energy:=T 4.1390592=T energy=-37.19437198305226 dipole="0.028398605181849064 -0.287944011801796 0.009721630272935598" magmom=0.0 free_energy=-37.19437198305226 pbc="T T T"
C       12.62843598      11.84011905      10.71543718       0.99226933      -0.31746024      -0.14279141       0.00312057       0.97365262       0.45513138       0.00000000
C       11.79893383      10.74559941      11.61556818       0.95774513       0.60284781       0.12881365      -0.74101575      -0.75047952       0.87194312       0.00000000
O       10.51168440      11.51074251      12.26580192       0.75293855      -1.55523025       0.27559397       1.68429906      -0.70271703      -0.96165742       0.00000000
H       11.85841339      12.62816280      10.08920817       0.17579996      -0.13540172       0.18592491       0.77096109      -1.22126910       0.62046423       0.00000000
H       13.41099704      11.26484769       9.93238975      -0.15307884       0.18024183      -0.01115315      -0.71011224       0.60577295       0.74790495       0.00000000
H       13.26190755      12.62498353      11.49539471       0.13251504      -0.16844866      -0.22665162      -0.65937087      -1.17669011      -1.02891313       0.00000000
H       11.43783455       9.70566886      10.89359825      -0.05054362       0.23410380       0.14082712       0.53844373       1.58239301       0.93422395       0.00000000
H       12.59429949      10.25772531      12.56531335      -0.15570665      -0.02451167       0.06731159      -1.15629530       0.77677931      -1.51846424       0.00000000
H        9.91330112      10.67709455      12.69228124       0.32249622       0.43930979      -0.24319807       0.25905137      -0.08892463      -0.09386432       0.00000000
9
Lattice="23.296006118037088 0.0 0.0 0.0 22.649327160371357 0.0 0.0 0.0 22.71683509278982" Properties=species:S:1:pos:R:3:momenta:R:3:forces:R:3:magmoms:R:1 Energy:=T 4.1390592=T energy=-37.267517747762625 dipole="0.02750539919168974 -0.2907637628190663 0.009079892503507431" magmom=0.0 free_energy=-37.267517747762625 pbc="T T T"
C       12.63249373      11.83891871      10.71489900       0.98947478      -0.27199183      -0.11675668      -0.11692029       0.87791284       0.60505578       0.00000000
C       11.80277568      10.74798912      11.61618246       0.91877955       0.56799395       0.17360626      -0.84574152      -0.66883987       0.95210245       0.00000000
O       10.51412273      11.50591531      12.26657544       0.84973757      -1.56932821       0.21849393       2.25755293       0.12861929      -1.36357165       0.00000000
H       11.86790147      12.62010429      10.09900950       0.21001236      -0.19171896       0.21351827       0.62223678      -1.07208289       0.50319327       0.00000000
H       13.40268883      11.27435454       9.93274119      -0.18379738       0.20603856       0.02160749      -0.54080898       0.44472203       0.58617470       0.00000000
H       13.26757523      12.61536819      11.48312032       0.10212843      -0.22330126      -0.27375917      -0.57803330      -1.05701875      -0.88940139       0.00000000
H       11.43601612       9.71896858      10.90157767      -0.02423823       0.30861600       0.18418463       0.53276479       1.45189451       0.83138139       0.00000000
H       12.58532939      10.25746042      12.56677619      -0.21022130       0.01341312      -0.00663445      -1.06365171       0.76759484      -1.49276819       0.00000000
H        9.92932428      10.69839294      12.68031942       0.32233721       0.41584077      -0.23843178      -0.26552662      -0.86678120       0.28795746       0.00000000
9
Lattice="23.296006118037088 0.0 0.0 0.0 22.649327160371357 0.0 0.0 0.0 22.71683509278982" Properties=species:S:1:pos:R:3:momenta:R:3:forces:R:3:magmoms:R:1 Energy:=T 4.1390592=T energy=-37.323436564023986 dipole="0.027032074498102757 -0.2945005414731384 0.008506030704704773" magmom=0.0 free_energy=-37.323436564023986 pbc="T T T"
C       12.63652799      11.83789468      10.71448233       0.97999963      -0.23332349      -0.08258679      -0.26892696       0.69674022       0.78641091       0.00000000
C       11.80644768      10.75024451      11.61698795       0.87484043       0.53928201       0.22179172      -0.94354864      -0.50036870       1.01010698       0.00000000
O       10.51690143      11.50110751      12.26714338       0.97631086      -1.54124905       0.14090827       2.89676758       1.01482107      -1.79587348       0.00000000
H       11.87887855      12.60948030      10.11001496       0.23575130      -0.23950460       0.23453000       0.42590528      -0.87384505       0.35244714       0.00000000
H       13.39308646      11.28492561       9.93449534      -0.20507953       0.22310416       0.04555692      -0.32584327       0.25022373       0.38909442       0.00000000
H       13.27185969      12.60322341      11.46871760       0.07701813      -0.27106110      -0.31286816      -0.44450898      -0.88785860      -0.70319587       0.00000000
H       11.43547260       9.73574268      10.91154656       0.00139091       0.37537441       0.22144343       0.51090586       1.26664301       0.68587258       0.00000000
H       12.57381398      10.25903238      12.56466684      -0.25960427       0.05022441      -0.07809936      -0.94732247       0.73143563      -1.41742711       0.00000000
H        9.94471203      10.71761714      12.66904669       0.29481132       0.35262311      -0.21416890      -0.85538304      -1.70756961       0.70007599       0.00000000
9
Lattice="23.296006118037088 0.0 0.0 0.0 22.649327160371357 0.0 0.0 0.0 22.71683509278982" Properties=species:S:1:pos:R:3:momenta:R:3:forces:R:3:magmoms:R:1 Energy:=T 4.1390592=T energy=-37.357270207105834 dipole="0.026826084074735624 -0.2987040882068922 0.007981907382177623" magmom=0.0 free_energy=-37.357270207105834 pbc="T T T"
C       12.64050824      11.83701057      10.71422360       0.96230334      -0.20577625      -0.03891860      -0.45170160       0.42503922       0.99184628       0.00000000
C       11.80993019      10.75239942      11.61799629       0.82634557       0.52098720       0.27221013      -1.03125982      -0.24463286       1.04303266       0.00000000
O       10.52011686      11.49645271      12.26744056       1.13325219      -1.47069296       0.04280243       3.49420084       1.85836570      -2.19919470       0.00000000
H       11.89087481      12.59676520      10.12186383       0.25067989      -0.27628001       0.24761778       0.18201689      -0.62372412       0.18051356       0.00000000
H       13.38270436      11.29609545       9.93718059      -0.21557918       0.23032492       0.05874189      -0.10172347       0.04381996       0.14782447       0.00000000
H       13.27508045      12.58895400      11.45263214       0.05945081      -0.30891418      -0.34134402      -0.27086798      -0.65359528      -0.45639868       0.00000000
H       11.43615166       9.75554783      10.92315675       0.02510337       0.43116286       0.25027225       0.45471338       1.00517550       0.48809524       0.00000000
H       12.56003164      10.26235466      12.55916561      -0.30219097       0.08467817      -0.14457655      -0.78689419       0.67159102      -1.28965861       0.00000000
H        9.95805287      10.73275514      12.65944923       0.23877287       0.24919320      -0.17017105      -1.42661619      -2.50430562       1.09160564       0.00000000
9
Lattice="23.296006118037088 0.0 0.0 0.0 22.649327160371357 0.0 0.0 0.0 22.71683509278982" Properties=species:S:1:pos:R:3:momenta:R:3:forces:R:3:magmoms:R:1 Energy:=T 4.1390592=T energy=-37.374776817456016 dipole="0.02666530264516974 -0.3027785817506953 0.007475875156034445" magmom=0.0 free_energy=-37.374776817456016 pbc="T T T"
C       12.64439778      11.83621182      10.71416405       0.93505652      -0.19373958       0.01520678      -0.65784430       0.06511819       1.21224869       0.00000000
C       11.81320560      10.75450519      11.61921411       0.77389956       0.51739644       0.32345913      -1.10444771       0.09840980       1.04393040       0.00000000
O       10.52385910      11.49207809      12.26740617       1.31494338      -1.36323965      -0.07210913       3.90463179       2.51735052      -2.48023652       0.00000000
H       11.90330664      12.58255754      10.13414466       0.25215406      -0.29924202       0.25090967      -0.12198560      -0.31133550      -0.04646090       0.00000000
H       13.37207884      11.30737016       9.94021959      -0.21450268       0.22693746       0.05946222       0.14556036      -0.18176422      -0.11849140       0.00000000
H       13.27765302      12.57312054      11.43545452       0.05135743      -0.33398941      -0.35662192      -0.05871088      -0.36751899      -0.16574841       0.00000000
H       11.43791885       9.77775836      10.93593493       0.04529153       0.47252968       0.26858278       0.36738931       0.67936504       0.25754653       0.00000000
H       12.54436626      10.26728405      12.55057824      -0.33548291       0.11537951      -0.20310563      -0.56882104       0.57862961      -1.09376421       0.00000000
H        9.96797982      10.74190036      12.65246397       0.15838392       0.11170007      -0.10954688      -1.84698435      -3.09469284       1.37713322       0.00000000
9
Lattice="23.296006118037088 0.0 0.0 0.0 22.649327160371357 0.0 0.0 0.0 22.71683509278982" Properties=species:S:1:pos:R:3:momenta:R:3:forces:R:3:magmoms:R:1 Energy:=T 4.1390592=T energy=-37.38596759828626 dipole="0.026348358055631658 -0.3061358735310352 0.006911063660656453" magmom=0.0 free_energy=-37.38596759828626 pbc="T T T"
C       12.64815521      11.83542615      10.71434796       0.89740637      -0.20127718       0.08006296      -0.87534578      -0.37206439       1.42882623       0.00000000
C       11.81625921      10.75663073      11.62064157       0.71831464       0.53274374       0.37379727      -1.15908295       0.52656358       1.00594028       0.00000000
O       10.52819004      11.48808301      12.26699784       1.50879267      -1.23098695      -0.19574288       3.98930348       2.86824683      -2.55437996       0.00000000
H       11.91544656      12.56760485      10.14631432       0.23786711      -0.30605159       0.24277215      -0.45980792       0.03403607      -0.28491546       0.00000000
H       13.36180164      11.31820991       9.94297503      -0.20121001       0.21241511       0.04682901       0.39574426      -0.40961522      -0.39595833       0.00000000
H       13.28008509      12.55640761      11.41788027       0.05496600      -0.34425095      -0.35657003       0.20565941      -0.05035144       0.16786131       0.00000000
H       11.44056520       9.80159461      10.94932943       0.06032679       0.49639111       0.27420001       0.24487706       0.29232094      -0.02880155       0.00000000
H       12.52733971      10.27359809      12.53937350      -0.35696676       0.14048413      -0.25012896      -0.30604480       0.44368130      -0.82112086       0.00000000
H        9.97348696      10.74364001      12.64877417       0.06366273      -0.04618032      -0.03936220      -2.01025412      -3.33451602       1.48092881       0.00000000
9
Lattice="23.296006118037088 0.0 0.0 0.0 22.649327160371357 0.0 0.0 0.0 22.71683509278982" Properties=species:S:1:pos:R:3:momenta:R:3:forces:R:3:magmoms:R:1 Energy:=T 4.1390592=T energy=-37.39466742537481 dipole="0.025799693653510144 -0.30833383403566866 0.006135447704991101" magmom=0.0 free_energy=-37.39466742537481 pbc="T T T"
C       12.65173685      11.83456576      10.71481881       0.84921094      -0.23152240       0.15476654      -1.08726965      -0.85958220       1.61325458       0.00000000
C       11.81908004      10.75886201      11.62227105       0.66041558       0.57086896       0.42107245      -1.19868371       1.02597217       0.91920065       0.00000000
O       10.53312244      11.48452036      12.26620439       1.69806165      -1.09125864      -0.31757720       3.71811213       2.82177256      -2.40695976       0.00000000
H       11.92648617      12.55273361      10.15780217       0.20712238      -0.29588422       0.22269714      -0.79217969       0.37999977      -0.53257973       0.00000000
H       13.35247146      11.32806946       9.94478295      -0.17620473       0.18702985       0.02089439       0.62252114      -0.62412363      -0.66015178       0.00000000
H       13.28300931      12.53957419      11.40070771       0.07233789      -0.33800614      -0.33930869       0.50175916       0.30465276       0.53505532       0.00000000
H       11.44379754       9.82613037      10.96265500       0.06878214       0.49994724       0.26478290       0.09944184      -0.14750838      -0.35468243       0.00000000
H       12.50958079      10.28097386      12.52620383      -0.36444379       0.15822843      -0.28194678       0.00156527       0.27890264      -0.47456494       0.00000000
H        9.97418359      10.73740021      12.64862822      -0.03129233      -0.20559779       0.03051707      -1.85650776      -3.15728589       1.36469635       0.00000000
9
Lattice="23.296006118037088 0.0 0.0 0.0 22.649327160371357 0.0 0.0 0.0 22.71683509278982" Properties=species:S:1:pos:R:3:momenta:R:3:forces:R:3:magmoms:R:1 Energy:=T 4.1390592=T energy=-37.392731112900464 dipole="0.02512096765011352 -0.30919005588890736 0.0049389298909938055" magmom=0.0 free_energy=-37.392731112900464 pbc="T T T"
C       12.65510013      11.83353275      10.71561365       0.79122666      -0.28585369       0.23705267      -1.27396752      -1.35289797       1.73760308       0.00000000
C       11.82166014      10.76129934      11.62408513       0.60080771       0.63453297       0.46270536      -1.22866930       1.56655506       0.77617571       0.00000000
O       10.53861541      11.48138315      12.26504805       1.86685893      -0.96251029      -0.42732416       3.15565454       2.42112077      -2.06215840       0.00000000
H       11.93563009      12.53877171      10.16801557       0.16024082      -0.26894100       0.19103145      -1.11693232       0.71718284      -0.75691103       0.00000000
H       13.34463095      11.33643548       9.94501113      -0.14116912       0.15187596      -0.01698023       0.80419977      -0.80741392      -0.88217922       0.00000000
H       13.28713423      12.52346980      11.38481553       0.10421183      -0.31429088      -0.30436754       0.79621210       0.66108045       0.88781924       0.00000000
H       11.44726784       9.85031315      10.97513183       0.06957276       0.48084229       0.23866394      -0.06724621      -0.63048378      -0.70893443       0.00000000
H       12.49182562      10.28901703      12.51189853      -0.35525308       0.16686410      -0.29492572       0.37269898       0.07275940      -0.05396380       0.00000000
H        9.97043761      10.72360505      12.65174798      -0.11195167      -0.34707203       0.09015205      -1.42810387      -2.60383097       1.06376055       0.00000000
9
Lattice="23.296006118037088 0.0 0.0 0.0 22.649327160371357 0.0 0.0 0.0 22.71683509278982" Properties=species:S:1:pos:R:3:momenta:R:3:forces:R:3:magmoms:R:1 Energy:=T 4.1390592=T energy=-37.36971986013238 dipole="0.024518558924351622 -0.30876732583213345 0.0031174030071797476" magmom=0.0 free_energy=-37.36971986013238 pbc="T T T"
C       12.65820756      11.83222803      10.71675745       0.72519559      -0.36296748       0.32341878      -1.41495116      -1.78733155       1.77939957       0.00000000
C       11.82399349      10.76405128      11.62605509       0.53965158       0.72445559       0.49569759      -1.26173230       2.09527623       0.56733464       0.00000000
O       10.54458415      11.47861096      12.26358080       2.00411648      -0.85881804      -0.51688488       2.43375038       1.80143724      -1.58493526       0.00000000
H       11.94210121      12.52652602      10.17641768       0.09893123      -0.22676869       0.14939596      -1.37971801       1.00015879      -0.93857051       0.00000000
H       13.33871490      11.34286937       9.94312827      -0.09903679       0.10900402      -0.06403719       0.91151419      -0.93841835      -1.03407565       0.00000000
H       13.29316448      12.50894737      11.37104789       0.14978676      -0.27444809      -0.25364928       1.05969119       0.96139870       1.17753067       0.00000000
H       11.45057722       9.87298719      10.98591218       0.06209909       0.43788548       0.19517759      -0.23709698      -1.11880422      -1.06191754       0.00000000
H       12.47496232      10.29723432      12.49746409      -0.32745102       0.16438232      -0.28611612       0.75945690      -0.17382264       0.41270859       0.00000000
H        9.96327419      10.70357895      12.65741330      -0.16771376      -0.45616443       0.13252181      -0.84264114      -1.83863247       0.66162208       0.00000000
9
Lattice="23.296006118037088 0.0 0.0 0.0 22.649327160371357 0.0 0.0 0.0 22.71683509278982" Properties=species:S:1:pos:R:3:momenta:R:3:forces:R:3:magmoms:R:1 Energy:=T 4.1390592=T energy=-37.32663857034641 dipole="0.024188609022600296 -0.30732021353625494 0.0005666927352912973" magmom=0.0 free_energy=-37.32663857034641 pbc="T T T"
C       12.66103084      11.83056437      10.71825860       0.65393846      -0.45825891       0.40952561      -1.48678357      -2.09312827       1.72704482       0.00000000
C       11.82607346      10.76722400      11.62813899       0.47659896       0.83840474       0.51683409      -1.30589760       2.54496333       0.29338625       0.00000000
O       10.55091982      11.47611038      12.26187460       2.10377046      -0.78676318      -0.58136284       1.62436127       1.13278246      -1.04073767       0.00000000
H       11.94527068      12.51667370      10.18257381       0.02716796      -0.17307384       0.10074792      -1.54262766       1.18640403      -1.04247592       0.00000000
H       13.33498008      11.34705763       9.93877088      -0.05371280       0.06118265      -0.11619134       0.93417007      -1.00896460      -1.08974684       0.00000000
H       13.30173056      12.49672555      11.36009807       0.20653551      -0.22147300      -0.19048789       1.25123250       1.19585396       1.39452909       0.00000000
H       11.45331924       9.89298394      10.99415137       0.04666450       0.37277868       0.13508039      -0.39143074      -1.53247648      -1.38536185       0.00000000