9
Lattice="23.296006118037088 0.0 0.0 0.0 22.649327160371357 0.0 0.0 0.0 22.71683509278982" Properties=species:S:1:pos:R:3:momenta:R:3:forces:R:3:magmoms:R:1 Energy:=T 4.1390592=T energy=-36.98634425743978 dipole="-0.00359344550769818 -0.30527383458902263 0.08389393629677162" magmom=0.0 free_energy=-36.98634425743978 pbc="T T T"
C       12.41935385      11.84012302      10.79785374      -0.65344652       1.54550575       0.79610118       0.44353380      -1.13046692       0.49644987       0.00000000
C       11.61415025      10.82753402      11.60188970       0.38214821       0.63210581       0.70931670      -0.39111902       0.45270704      -0.25935329       0.00000000
O       10.50473561      11.52841101      12.18890543      -0.89869859       0.70796309       0.16451330      -0.11654074       4.05218302      -0.99554019       0.00000000
H       11.79930214      12.27471535       9.99709962       0.10399863      -0.33672843      -0.11282241      -1.75672305       1.26958768      -2.17029370       0.00000000
H       13.31064075      11.34923790      10.31350214       0.34090853       0.12693798       0.01491207       1.65122790      -0.93060441      -0.88341923       0.00000000
H       12.79226058      12.66344273      11.45005169      -0.02977578       0.33612481      -0.03950134       0.78396867       1.89024516       1.50103619       0.00000000
H       11.26201639       9.99898471      10.90379631       0.12543391      -0.06421041      -0.48443515      -0.38083567      -1.76622157      -1.49516633       0.00000000
H       12.27711062      10.33837088      12.37459055       0.39835198      -0.30387992      -0.18765970       1.75190157      -1.20196996       1.60642295       0.00000000
H       10.00327493      10.85164694      12.72224862       0.01715320      -0.42093469       0.16339604      -2.03859108      -2.63530054       2.12933167       0.00000000
9
Lattice="23.296006118037088 0.0 0.0 0.0 22.649327160371357 0.0 0.0 0.0 22.71683509278982" Properties=species:S:1:pos:R:3:momenta:R:3:forces:R:3:magmoms:R:1 Energy:=T 4.1390592=T energy=-37.18988152772893 dipole="0.0033828901459401583 -0.3053434451306187 0.07991993530547067" magmom=0.0 free_energy=-37.18988152772893 pbc="T T T"
C       12.41672642      11.84632914      10.80115888      -0.61342694       1.48867028       0.81967477       1.18614463      -1.18398829       0.46351457       0.00000000
C       11.61567360      10.83016418      11.60476408       0.36542313       0.63809856       0.69152864      -0.28996002      -0.20867032      -0.46501248       0.00000000
O       10.50196801      11.53088978      12.18933541      -0.91655157       0.88472879       0.13113060      -0.61046882       3.14607369      -0.36387099       0.00000000
H       11.80226743      12.25982776       9.98900575       0.01592904      -0.27338229      -0.22201435      -1.82964906       1.30999513      -2.27622306       0.00000000
H       13.32922676      11.35430933      10.31317170       0.40922237       0.08810238      -0.02072508       1.13065001      -0.65085964      -0.56779745       0.00000000
H       12.79174781      12.68208164      11.44992302       0.00546407       0.42408408       0.02950785       0.65106916       1.69163431       1.30915770       0.00000000
H       11.26767233       9.99374286      10.87840388       0.11098239      -0.13799611      -0.54634486      -0.20765948      -1.23848130      -1.02592238       0.00000000
H       12.29861593      10.32212658      12.36736915       0.47609265      -0.35755939      -0.11541907       1.41385583      -0.98396655       1.33536153       0.00000000
H       10.00167153      10.82798432      12.73275761      -0.06932977      -0.53165441       0.25326071      -1.48317026      -1.87343034       1.53013938       0.00000000
9
Lattice="23.296006118037088 0.0 0.0 0.0 22.649327160371357 0.0 0.0 0.0 22.71683509278982" Properties=species:S:1:pos:R:3:momenta:R:3:forces:R:3:magmoms:R:1 Energy:=T 4.1390592=T energy=-37.39225334925776 dipole="0.009235712697238533 -0.30346154280853677 0.07627669666255654" magmom=0.0 free_energy=-37.39225334925776 pbc="T T T"
C       12.41433719      11.85229748      10.80455710      -0.53968300       1.43540021       0.83715367       1.81685745      -0.98527661       0.24826146       0.00000000
C       11.61713871      10.83275244      11.60754508       0.35601930       0.60921757       0.66528631      -0.09298295      -0.96742219      -0.60362831       0.00000000
O       10.49910838      11.53384287      12.18971052      -0.96018065       1.01388173       0.13073769      -1.16619541       2.11329509       0.34787082       0.00000000
H       11.80085439      12.24807496       9.97546491      -0.07058987      -0.21098371      -0.32992643      -1.69357568       1.23100156      -2.11817525       0.00000000
H       13.35051840      11.35782325      10.31148253       0.45095108       0.06323808      -0.04076981       0.56862734      -0.36166486      -0.24846469       0.00000000
H       12.79279304      12.70476861      11.45292716       0.03262810       0.49845621       0.08634342       0.45510495       1.33694933       1.00530166       0.00000000
H       11.27283134       9.98553735      10.85055644       0.10496962      -0.18574928      -0.58450153      -0.03719270      -0.70612465      -0.52789437       0.00000000
H       12.32350459      10.30352766      12.36334326       0.53455575      -0.39857153      -0.05865271       0.96687973      -0.68613060       0.97627972       0.00000000
H        9.99651893      10.79983861      12.74692821      -0.12679870      -0.60134784       0.31167837      -0.85708082      -0.96462687       0.84874605       0.00000000
9
Lattice="23.296006118037088 0.0 0.0 0.0 22.649327160371357 0.0 0.0 0.0 22.71683509278982" Properties=species:S:1:pos:R:3:momenta:R:3:forces:R:3:magmoms:R:1 Energy:=T 4.1390592=T energy=-37.5339594588154 dipole="0.013801060733232782 -0.3003104925830843 0.07317025306821676" magmom=0.0 free_energy=-37.5339594588154 pbc="T T T"
C       12.41231284      11.85806796      10.80800519      -0.43918526       1.39654720       0.84029619       2.27561396      -0.59689659      -0.12029170       0.00000000
C       11.61858515      10.83514641      11.61020485       0.35757998       0.54324016       0.63341209       0.15653693      -1.71931118      -0.69435446       0.00000000
O       10.49607292      11.53711457      12.19013808      -1.02956980       1.09317457       0.16403197      -1.65947122       1.11566983       1.00793986       0.00000000
H       11.79538863      12.23926795       9.95685529      -0.14620367      -0.15469342      -0.42452618      -1.38557125       1.06125253      -1.73411778       0.00000000
H       13.37317075      11.36047171      10.30919879       0.46565522       0.05187413      -0.04561856       0.03015509      -0.10109844       0.05101402       0.00000000
H       12.79492733      12.73065488      11.45833696       0.04939682       0.55389488       0.12700874       0.22775134       0.92062561       0.65067238       0.00000000
H       11.27790134       9.97564209      10.82144574       0.10677023      -0.20834641      -0.59854262       0.11051713      -0.21407601      -0.04388729       0.00000000
H       12.35070698      10.28328684      12.36165360       0.57027232      -0.42419942      -0.02009007       0.48757154      -0.35748925       0.59406876       0.00000000
H        9.98931533      10.76938456      12.76312984      -0.15492908      -0.62758017       0.33800110      -0.28844509      -0.10360663       0.22316885       0.00000000
9
Lattice="23.296006118037088 0.0 0.0 0.0 22.649327160371357 0.0 0.0 0.0 22.71683509278982" Properties=species:S:1:pos:R:3:momenta:R:3:forces:R:3:magmoms:R:1 Energy:=T 4.1390592=T energy=-37.58338312165126 dipole="0.01712928991488457 -0.29667740642802626 0.07071842212773737" magmom=0.0 free_energy=-37.58338312165126 pbc="T T T"
C       12.41074550      11.86371856      10.81142912      -0.32048903       1.37972918       0.82306846       2.55793674      -0.08796701      -0.58125615       0.00000000
C       11.62006303      10.83719510      11.61272517       0.37163305       0.44240462       0.59777003       0.41573249      -2.38691596      -0.75706245       0.00000000
O       10.49278727      11.54055449      12.19071760      -1.12015801       1.12646904       0.22688549      -2.02946409       0.24014822       1.55158266       0.00000000
H       11.78660722      12.23300050       9.93409595      -0.20407151      -0.10815249      -0.49638536      -0.97092435       0.83398830      -1.19213329       0.00000000
H       13.39589527      11.36287825      10.30703712       0.45585220       0.05242466      -0.03690820      -0.42935397       0.12351723       0.30368954       0.00000000
H       12.79760663      12.75874421      11.46530382       0.05495341       0.58812070       0.15008007      -0.00147547       0.47311896       0.28883880       0.00000000
H       11.28323581       9.96523454      10.79223003       0.11494968      -0.20849780      -0.58965806       0.22256666       0.20791110       0.40568471       0.00000000
H       12.37907613      10.26219054      12.36138554       0.58272708      -0.43352303       0.00046900       0.01961116      -0.02218665       0.24313842       0.00000000
H        9.98142150      10.73868258      12.77986552      -0.15792663      -0.61431615       0.33564271       0.16637870       0.64374432      -0.31920728       0.00000000
9
Lattice="23.296006118037088 0.0 0.0 0.0 22.649327160371357 0.0 0.0 0.0 22.71683509278982" Properties=species:S:1:pos:R:3:momenta:R:3:forces:R:3:magmoms:R:1 Energy:=T 4.1390592=T energy=-37.53827944134897 dipole="0.019444200959752106 -0.2932936659560133 0.06891741220524494" magmom=0.0 free_energy=-37.53827944134897 pbc="T T T"
C       12.40969186      11.86935150      10.81473631      -0.19134153       1.38867260       0.78226687       2.70121046       0.45216095      -1.08026728       0.00000000
C       11.62162440      10.83876443      11.61509346       0.39791365       0.31208294       0.55943289       0.65446682      -2.92004665      -0.80410324       0.00000000
O       10.48919563      11.54403061      12.19153106      -1.22533278       1.12032291       0.31306712      -2.25346531      -0.49043075       1.95790756       0.00000000
H       11.77550240      12.22872877       9.90848384      -0.24051880      -0.07305076      -0.53972204      -0.51328311       0.59542519      -0.57262416       0.00000000
H       13.41759235      11.36558036      10.30560218       0.42525653       0.06300902      -0.01707461      -0.81656338       0.30749942       0.50397415       0.00000000
H       12.80028240      12.78796570      11.47296187       0.04973054       0.60031475       0.15592899      -0.21121074       0.02344726      -0.05065872       0.00000000
H       11.28910289       9.95532452      10.76398512       0.12788580      -0.18979277      -0.56096086       0.30421833       0.55379566       0.76292339       0.00000000
H       12.40749220      10.24104116      12.36169930       0.57278735      -0.42684524       0.00509883      -0.42437672       0.29411947      -0.05460240       0.00000000
H        9.97392580      10.70952107      12.79583734      -0.14166318      -0.56838837       0.31003027       0.49590217       1.22652763      -0.72378310       0.00000000
9
Lattice="23.296006118037088 0.0 0.0 0.0 22.649327160371357 0.0 0.0 0.0 22.71683509278982" Properties=species:S:1:pos:R:3:momenta:R:3:forces:R:3:magmoms:R:1 Energy:=T 4.1390592=T energy=-36.780218651232985 dipole="0.04055393001431774 -0.25589651002220576 0.0409778335092465" magmom=0.0 free_energy=-36.780218651232985 pbc="T T T"
C       12.47468658      12.07310520      10.82344134       0.44186742       0.91007068       0.29036534      -0.96134510       1.02546968      -0.96241427       0.00000000
C       11.69464673      10.85757585      11.60264996      -0.14380426       1.47811955      -0.38152788      -1.10804619      -1.14807592       0.58593468       0.00000000
O       10.37701387      11.54146452      12.27508574      -0.24572290      -1.24949576       0.77502355       0.59934880      -1.51886599       0.15765478       0.00000000
H       11.77373110      12.32000722       9.72072537       0.08358070       0.13126706      -0.12029088       1.51137273      -0.50599275       1.95859101       0.00000000
H       13.65907021      11.73602345      10.54654141      -0.02635969       0.41859996       0.14030637      -1.33681105       0.49568096       0.26298567       0.00000000
H       12.40593490      13.18632697      11.47287590      -0.24671488      -0.00015317       0.07006390       0.28530207      -1.77404033      -0.75803227       0.00000000
H       11.32981662       9.96890430      10.65828140      -0.09912382      -0.04439457       0.15068555       0.75525852       1.30368236       1.69036646       0.00000000
H       12.43619448      10.23415674      12.53075965      -0.15348122       0.22048792       0.23516729      -1.07421005       1.06844426      -1.68456937       0.00000000
H        9.82050685      10.69847728      12.91425498       0.14154811       0.35438494      -0.22501297       1.33937150       1.10259998      -1.28069287       0.00000000
9
Lattice="23.296006118037088 0.0 0.0 0.0 22.649327160371357 0.0 0.0 0.0 22.71683509278982" Properties=species:S:1:pos:R:3:momenta:R:3:forces:R:3:magmoms:R:1 Energy:=T 4.1390592=T energy=-36.85016246141638 dipole="0.03836493796435453 -0.25545482813611053 0.04230658522739886" magmom=0.0 free_energy=-36.85016246141638 pbc="T T T"
C       12.47639686      12.07692949      10.82453201       0.38893444       0.96205851       0.24282643      -1.19419297       1.09158006      -0.97346625       0.00000000
C       11.69394745      10.86350466      11.60114871      -0.19939425       1.41996525      -0.34909906      -1.15569071      -1.22008514       0.73463231       0.00000000
O       10.37630473      11.53751434      12.27747678      -0.21091706      -1.31188179       0.77495087       0.81801533      -1.02161961      -0.16061471       0.00000000
H       11.77961181      12.32579762       9.71720779       0.15798241       0.10613104      -0.02342518       1.51841540      -0.51759661       1.98597603       0.00000000
H       13.65618638      11.75701226      10.55369231      -0.08781261       0.44071470       0.15240448      -1.16567641       0.40487584       0.22967388       0.00000000
H       12.39425541      13.18419688      11.47538269      -0.23202701      -0.08574099       0.03327239       0.31281761      -1.71126871      -0.74019244       0.00000000
H       11.32589061       9.96830108      10.66764587      -0.06135927       0.01975615       0.23240826       0.78259037       1.30866456       1.63754751       0.00000000
H       12.42743103      10.24617811      12.54020229      -0.20502460       0.27239036       0.15117017      -1.02474079       1.04512826      -1.73596328       0.00000000
H        9.82900614      10.71706347      12.90175918       0.20229414       0.39846790      -0.28131907       1.13433008       0.69254722      -1.01220518       0.00000000
9
Lattice="23.296006118037088 0.0 0.0 0.0 22.649327160371357 0.0 0.0 0.0 22.71683509278982" Properties=species:S:1:pos:R:3:momenta:R:3:forces:R:3:magmoms:R:1 Energy:=T 4.1390592=T energy=-36.95390719471768 dipole="0.03666620085891294 -0.25666324615416436 0.04343552037193148" magmom=0.0 free_energy=-36.95390719471768 pbc="T T T"
C       12.47786732      12.08097299      10.82542719       0.32412881       1.01516883       0.19589359      -1.44482330       1.07117969      -0.93773397       0.00000000
C       11.69301607      10.86918845      11.59979500      -0.25751455       1.35989878      -0.30969992      -1.21108522      -1.22594270       0.86978050       0.00000000
O       10.37571893      11.53341013      12.27984361      -0.16298482      -1.34715051       0.75686093       1.13388275      -0.41459401      -0.57604407       0.00000000
H       11.78912607      12.33034942       9.71844264       0.23143391       0.08063775       0.07326538       1.47267815      -0.52054194       1.95145904       0.00000000
H       13.65051310      11.77896994      10.56139282      -0.13931243       0.45784948       0.16275077      -0.93150027       0.29288737       0.19164782       0.00000000
H       12.38332448      13.17797174      11.47611821      -0.21642841      -0.16677516      -0.00161209       0.32238874      -1.58860647      -0.68037441       0.00000000
H       11.32383732       9.97082948      10.68092897      -0.02273296       0.08315851       0.31049785       0.79035093       1.27320800       1.54241851       0.00000000
H       12.41621538      10.26070046      12.54549079      -0.25340064       0.32242109       0.06605428      -0.94522945       0.99222419      -1.73012793       0.00000000
H        9.84021988      10.73730693      12.88684118       0.25060103       0.41940152      -0.32195010       0.83282421       0.15991235      -0.64237290       0.00000000
9
Lattice="23.296006118037088 0.0 0.0 0.0 22.649327160371357 0.0 0.0 0.0 22.71683509278982" Properties=species:S:1:pos:R:3:momenta:R:3:forces:R:3:magmoms:R:1 Energy:=T 4.1390592=T energy=-37.07006419541363 dipole="0.03557310200431181 -0.2594799037109413 0.04438737903454259" magmom=0.0 free_energy=-37.07006419541363 pbc="T T T"
C       12.47904761      12.08523162      10.82613405       0.24686991       1.06518049       0.15184119      -1.70131531       0.96539604      -0.85616885       0.00000000
C       11.69184147      10.87462603      11.59861596      -0.31846974       1.30182456      -0.26419710      -1.27113333      -1.13895698       0.98318618       0.00000000
O       10.37530408      11.52924341      12.28212358      -0.09686350      -1.34933625       0.71555080       1.55871114       0.32558638      -1.10618822       0.00000000
H       11.80216444      12.33365556       9.72434731       0.30136172       0.05544677       0.16664650       1.37492376      -0.50528549       1.85120919       0.00000000
H       13.64261075      11.80162849      10.56955195      -0.17788188       0.46920681       0.17094877      -0.63912565       0.16960601       0.14219118       0.00000000
H       12.37316503      13.16794508      11.47522560      -0.20074973      -0.24010581      -0.03247889       0.31607889      -1.39756614      -0.57658379       0.00000000
H       11.32367534       9.97640466      10.69790307       0.01555222       0.14381120       0.38259362       0.76869896       1.19669218       1.39346697       0.00000000
H       12.40273780      10.27759720      12.54663911      -0.29701446       0.36917180      -0.01760262      -0.83081334       0.91155914      -1.67655025       0.00000000
H        9.85342656      10.75793305      12.87038599       0.28160248       0.41052349      -0.34165750       0.42961721      -0.52144392      -0.16015216       0.00000000
9
Lattice="23.296006118037088 0.0 0.0 0.0 22.649327160371357 0.0 0.0 0.0 22.71683509278982" Properties=species:S:1:pos:R:3:momenta:R:3:forces:R:3:magmoms:R:1 Energy:=T 4.1390592=T energy=-37.17523972643698 dipole="0.03515775690485926 -0.2636763539112668 0.04521744546564585" magmom=0.0 free_energy=-37.17523972643698 pbc="T T T"
C       12.47988624      12.08968413      10.82666896       0.15726391       1.10778419       0.11298691      -1.94762232       0.76951268      -0.72605619       0.00000000
C       11.69041160      10.87983488      11.59763437      -0.38217004       1.25064662      -0.21343336      -1.32287196      -0.94511254       1.08401596       0.00000000
O       10.37512423      11.52512579      12.28423678      -0.00771839      -1.31204567       0.64563605       2.07145771       1.19296145      -1.74088178       0.00000000
H       11.81849298      12.33575256       9.73468191       0.36542251       0.03143153       0.25310876       1.23376107      -0.47266390       1.66970885       0.00000000
H       13.63317898      11.82469291      10.57805133      -0.20108062       0.47455435       0.17650435      -0.30557410       0.04815668       0.08404327       0.00000000
H       12.36376195      13.15457406      11.47295323      -0.18558871      -0.30225678      -0.05719279       0.30130843      -1.13334702      -0.42981633       0.00000000
H       11.32535284       9.98484351      10.71821171       0.05217267       0.19936136       0.44594021       0.72256001       1.06542270       1.18613462       0.00000000
H       12.38727210      10.29667528      12.54377546      -0.33385748       0.41149056      -0.09747270      -0.66950895       0.81174660      -1.57592092       0.00000000
H        9.86766130      10.77731136      12.85354756       0.29028055       0.36501345      -0.33520616      -0.07622860      -1.33181682       0.42286384       0.00000000
9
Lattice="23.296006118037088 0.0 0.0 0.0 22.649327160371357 0.0 0.0 0.0 22.71683509278982" Properties=species:S:1:pos:R:3:momenta:R:3:forces:R:3:magmoms:R:1 Energy:=T 4.1390592=T energy=-37.251482334024814 dipole="0.0354191882993306 -0.2687984992049134 0.0460093990206019" magmom=0.0 free_energy=-37.251482334024814 pbc="T T T"
C       12.48033373      12.09429117      10.82705806       0.05637422       1.13858989       0.08194654      -2.16080999       0.48495810      -0.53797041       0.00000000
C       11.68871606      10.88485392      11.59687048      -0.44796106       1.21147557      -0.15806840      -1.35627124      -0.65001181       1.17055734       0.00000000
O       10.37525669      11.52118802      12.28608751       0.10733308      -1.23072059       0.54363315       2.61367102       2.11876036      -2.41288267       0.00000000
H       11.83777390      12.33671848       9.74901209       0.42116542       0.00954809       0.32834951       1.03620301      -0.41847404       1.39424668       0.00000000
H       13.62301597      11.84787256      10.58675183      -0.20693587       0.47360942       0.17915935       0.06713623      -0.08663618       0.02407400       0.00000000
H       12.35507990      13.13849095      11.46965231      -0.17148448      -0.34969777      -0.07371219       0.27304431      -0.79854595      -0.24288713       0.00000000
H       11.32875943       9.99583190      10.74135877       0.08572421       0.24693984       0.49790060       0.64372659       0.87206934       0.92979752       0.00000000
H       12.37020427      10.31769587      12.53714065      -0.36191857       0.44770428      -0.17052952      -0.47319538       0.66294902      -1.39910044       0.00000000
H        9.88171363      10.79350265      12.83772103       0.27309256       0.27883369      -0.29910609      -0.62370110      -2.17759757       1.04720387       0.00000000
9
Lattice="23.296006118037088 0.0 0.0 0.0 22.649327160371357 0.0 0.0 0.0 22.71683509278982" Properties=species:S:1:pos:R:3:momenta:R:3:forces:R:3:magmoms:R:1 Energy:=T 4.1390592=T energy=-37.29295341454429 dipole="0.036255671608041676 -0.27419027391042305 0.046894547471596874" magmom=0.0 free_energy=-37.29295341454429 pbc="T T T"
C       12.48034727      12.09899561      10.82733913      -0.05329960       1.15321635       0.06180364      -2.30532958       0.11066079      -0.28228897       0.00000000
C       11.68674814      10.88974242      11.59634167      -0.51503592       1.18933241      -0.09926255      -1.37515289      -0.25170255       1.22413570       0.00000000
O       10.37578321      11.51756969      12.28757445       0.24713692      -1.10555596       0.41042348       3.07942412       2.97819664      -3.01168431       0.00000000
H       11.85953444      12.33668299       9.76667870       0.46551633      -0.00907432       0.38714667       0.76985593      -0.33986806       1.00009254       0.00000000
H       13.61301362      11.87084490      10.59550994      -0.19411789       0.46675136       0.17900933       0.45483803      -0.19263786      -0.03018321       0.00000000
H       12.34705124      13.12049693      11.46577017      -0.15918132      -0.37903661      -0.07992123       0.22796546      -0.39619104      -0.00995732       0.00000000
H       11.33370644      10.00890715      10.76673082       0.11464811       0.28327643       0.53569306       0.53411330       0.60763014       0.60918774       0.00000000
H       12.35200409      10.34030289      12.52715781      -0.37918581       0.47615048      -0.23291977      -0.22996171       0.49543807      -1.14155691       0.00000000
H        9.89427345      10.80448297      12.82440046       0.22973204       0.15267410      -0.23333312      -1.14202681      -2.95987605       1.63120462       0.00000000
9
Lattice="23.296006118037088 0.0 0.0 0.0 22.649327160371357 0.0 0.0 0.0 22.71683509278982" Properties=species:S:1:pos:R:3:momenta:R:3:forces:R:3:magmoms:R:1 Energy:=T 4.1390592=T energy=-37.3051465722613 dipole="0.037504841441138144 -0.27909006759882093 0.048024880293612564" magmom=0.0 free_energy=-37.3051465722613 pbc="T T T"
C       12.47989784      12.10372227      10.82756350      -0.16744444       1.14684477       0.05612611      -2.34287947      -0.37012457       0.05108848       0.00000000
C       11.68450405      10.89458038      11.59605871      -0.58267309       1.18926709      -0.03892002      -1.37916939       0.24904271       1.23313432       0.00000000
O       10.37677400      11.51440038      12.28860733       0.40462003      -0.94401717       0.25320528       3.33360658       3.59998958      -3.39055907       0.00000000
H       11.88313724      12.33583421       9.78673852       0.49540294      -0.02309407       0.42339269       0.44718713      -0.23104444       0.47591898       0.00000000
H       13.60409969      11.89335626      10.60419582      -0.16278795       0.45432994       0.17630276       0.82098033      -0.31318760      -0.08003401       0.00000000
H       12.33956810      13.10155483      11.46186420      -0.14964869      -0.38685254      -0.07362186       0.16022238       0.07791033       0.26648030       0.00000000
H       11.33993159      10.02343644      10.79356065       0.13745559       0.30470427       0.55576516       0.39465318       0.26495462       0.20818894       0.00000000
H       12.33325361      10.36409548      12.51444323      -0.38284131       0.49492623      -0.28038849       0.08110257       0.26914852      -0.79146548       0.00000000
H        9.90410041      10.80838034      12.81498333       0.16508428      -0.00602138      -0.14374589      -1.49056095      -3.50252459       2.01696855       0.00000000
9
Lattice="23.296006118037088 0.0 0.0 0.0 22.649327160371357 0.0 0.0 0.0 22.71683509278982" Properties=species:S:1:pos:R:3:momenta:R:3:forces:R:3:magmoms:R:1 Energy:=T 4.1390592=T energy=-37.29662235110993 dipole="0.03904631594237664 -0.28280643007991724 0.049501395566301495" magmom=0.0 free_energy=-37.29662235110993 pbc="T T T"
C       12.47897790      12.10837460      10.82779813      -0.27982659       1.11454754       0.06902051      -2.23354874      -0.94508403       0.47399759       0.00000000
C       11.68198299      10.89946835      11.59602338      -0.65007382       1.21638500       0.02049427      -1.36552466       0.85525352       1.18633570       0.00000000
O       10.37826740      11.51177384      12.28912902       0.56667783      -0.76140458       0.08560102       3.26571508       3.83636428      -3.43462527       0.00000000
H       11.90781015      12.33443254       9.80793721       0.50684837      -0.03105417       0.43036763       0.01889388      -0.09310689      -0.19188553       0.00000000
H       13.59715036      11.91511816      10.61269018      -0.11493467       0.43711909       0.17186082       1.12770208      -0.38767295      -0.10085084       0.00000000
H       12.33246837      13.08279917      11.45859591      -0.14373610      -0.37054230      -0.05312815       0.08055043       0.58627576       0.56806489       0.00000000
H       11.34710113      10.03859977      10.82088867       0.15265277       0.30731943       0.55468368       0.22420691      -0.15845972      -0.25222910       0.00000000
H       12.31469721      10.38853215      12.49983468      -0.37048422       0.50190987      -0.30898281       0.42210312       0.01523941      -0.37295286       0.00000000
H        9.91036048      10.80389620      12.81039280       0.09013187      -0.18136692      -0.04276097      -1.56165246      -3.63790082       2.09534169       0.00000000
9
Lattice="23.296006118037088 0.0 0.0 0.0 22.649327160371357 0.0 0.0 0.0 22.71683509278982" Properties=species:S:1:pos:R:3:momenta:R:3:forces:R:3:magmoms:R:1 Energy:=T 4.1390592=T energy=-37.26787317766466 dipole="0.040908157143315506 -0.28489605580377936 0.0512817150371045" magmom=0.0 free_energy=-37.26787317766466 pbc="T T T"
C       12.47760940      12.11283713      10.82812795      -0.38283155       1.05293981       0.10474414      -1.96102184      -1.56370720       0.98074052       0.00000000
C       11.67918769      10.90452807      11.59622631      -0.71637367       1.27502786       0.07602200      -1.33433954       1.53280226       1.07486568       0.00000000
O       10.38025316      11.50972569      12.28913288       0.71697443      -0.57782247      -0.07539132       2.85466621       3.63947083      -3.12130843       0.00000000
H       11.93252828      12.33280806       9.82867671       0.49666900      -0.03156452       0.40204922      -0.43341818       0.07232435      -0.96129710       0.00000000
H       13.59289961      11.93595236      10.62094320      -0.05447329       0.41626880       0.16696726       1.33440773      -0.46139303      -0.09842466       0.00000000
H       12.32556139      13.06544646      11.45668700      -0.14184231      -0.32958434      -0.01777464      -0.00343155       1.08161526       0.87160152       0.00000000
H       11.35480720      10.05338391      10.84761311       0.15900770       0.28746082       0.53023566       0.03457861      -0.65022334      -0.74334366       0.00000000