9
Lattice="23.296006118037088 0.0 0.0 0.0 22.649327160371357 0.0 0.0 0.0 22.71683509278982" Properties=species:S:1:pos:R:3:momenta:R:3:forces:R:3:magmoms:R:1 Energy:=T 4.1390592=T energy=-36.98167506140065 dipole="-0.015722619301697667 -0.3025389591987816 0.08530513653600344" magmom=0.0 free_energy=-36.98167506140065 pbc="T T T"
C       12.42301863      11.83504959      10.79978402       0.23135502       0.30692729       1.23705610      -0.02243443      -1.04256155      -0.77031262       0.00000000
C       11.61566276      10.82523794      11.60106685       0.75306242       0.08185352       0.52214621      -0.34953487       0.91156560       0.31326283       0.00000000
O       10.50620884      11.52787375      12.18936213      -0.41874069       0.53767272       0.31272032      -0.11471385       4.24461327      -1.01853244       0.00000000
H       11.76829915      12.30090330      10.00220888      -0.51588144       0.18862136       0.01269336      -1.08797686       0.77566968      -1.32922630       0.00000000
H       13.30990315      11.33013614      10.28954403       0.31620607      -0.25791273      -0.47179892       1.26176037      -0.63773238      -0.67969245       0.00000000
H       12.77822479      12.64928345      11.46245995      -0.31321512       0.04946192       0.21923325       0.97250520       2.05072553       1.66672210       0.00000000
H       11.24575032      10.00606933      10.93833433      -0.21306997       0.06589956       0.21165336      -0.57062298      -2.38903154      -2.01504231       0.00000000
H       12.26905168      10.34988547      12.38621448       0.23522628      -0.06902506       0.05209283       1.84454811      -1.26180099       1.65464228       0.00000000
H        9.99097670      10.86425281      12.72516966      -0.23441677      -0.16258807       0.22258713      -2.00448041      -2.65057685       2.09837942       0.00000000
9
Lattice="23.296006118037088 0.0 0.0 0.0 22.649327160371357 0.0 0.0 0.0 22.71683509278982" Properties=species:S:1:pos:R:3:momenta:R:3:forces:R:3:magmoms:R:1 Energy:=T 4.1390592=T energy=-37.155882509825986 dipole="-0.019797938694985338 -0.300496697274961 0.08281202511586681" magmom=0.0 free_energy=-37.155882509825986 pbc="T T T"
C       12.42396240      11.83619994      10.80476504       0.23739377       0.25572717       1.17389530       0.26834432      -1.04241071      -1.80172289       0.00000000
C       11.61870696      10.82566417      11.60323339       0.73778793       0.11876233       0.54438485      -0.27247313       0.59143608       0.59233945       0.00000000
O       10.50491475      11.52984427      12.19024533      -0.43691707       0.72932739       0.27761143      -0.62546497       3.55995237      -0.41117260       0.00000000
H       11.74186175      12.31102171      10.00123693      -0.55716369       0.21872273      -0.03920558      -0.59311982       0.45011911      -0.78420336       0.00000000
H       13.32681957      11.31680664      10.26574299       0.35884507      -0.27695056      -0.49313856       0.47458618      -0.13752643      -0.18930079       0.00000000
H       12.76412739      12.65414709      11.47513603      -0.26494040       0.14870548       0.29961822       0.99333923       1.99067289       1.60671649       0.00000000
H       11.23468601      10.00642174      10.94623588      -0.23983625      -0.05066482       0.11348429      -0.51935374      -2.35770581      -1.98260066       0.00000000
H       12.28271976      10.34501257      12.39073241       0.31991052      -0.12737813       0.12750985       1.60396534      -1.11445431       1.41649131       0.00000000
H        9.97715670      10.85315952      12.73852562      -0.31779215      -0.27529609       0.31034652      -1.39073342      -1.93912171       1.47536063       0.00000000
9
Lattice="23.296006118037088 0.0 0.0 0.0 22.649327160371357 0.0 0.0 0.0 22.71683509278982" Properties=species:S:1:pos:R:3:momenta:R:3:forces:R:3:magmoms:R:1 Energy:=T 4.1390592=T energy=-37.31574770559217 dipole="-0.02340267919611391 -0.29717776667189627 0.08072116438597775" magmom=0.0 free_energy=-37.31574770559217 pbc="T T T"
C       12.42496005      11.83714095      10.80938423       0.25719657       0.21070784       1.06590806       0.53806583      -0.79086761      -2.59573568       0.00000000
C       11.62169645      10.82620918      11.60551888       0.72644703       0.13314540       0.57899313      -0.18935129      -0.00572868       0.81697979       0.00000000
O       10.50352636      11.53235151      12.19106655      -0.48217194       0.88461080       0.27440489      -1.21740505       2.76350236       0.28059566       0.00000000
H       11.71400501      12.32221725       9.99838840      -0.57446891       0.23347414      -0.06501704      -0.11158383       0.15058816      -0.26689175       0.00000000
H       13.34487166      11.30314804      10.24148897       0.36565510      -0.27314278      -0.49169021      -0.19726795       0.29258691       0.24828044       0.00000000
H       12.75240704      12.66377440      11.49165696      -0.21758197       0.24011552       0.37280211       0.93519164       1.73172883       1.37347954       0.00000000
H       11.22237891      10.00113218      10.94939308      -0.26194069      -0.16055248       0.02115663      -0.38078388      -2.11714220      -1.77716872       0.00000000
H       12.30022612      10.33747280      12.39863998       0.39001073      -0.17674846       0.18880679       1.25065691      -0.89600515       1.07964401       0.00000000
H        9.96000869      10.83742593      12.75541211      -0.36900676      -0.35050651       0.36561766      -0.69482934      -1.12359876       0.77539184       0.00000000
9
Lattice="23.296006118037088 0.0 0.0 0.0 22.649327160371357 0.0 0.0 0.0 22.71683509278982" Properties=species:S:1:pos:R:3:momenta:R:3:forces:R:3:magmoms:R:1 Energy:=T 4.1390592=T energy=-37.41476852086474 dipole="-0.026500601404560706 -0.29304189417613535 0.07918196029170038" magmom=0.0 free_energy=-37.41476852086474 pbc="T T T"
C       12.42606577      11.83792313      10.81348213       0.28921954       0.18284577       0.92555513       0.76597441      -0.34373236      -3.11971961       0.00000000
C       11.62464791      10.82675305      11.60796844       0.71863039       0.11393235       0.62294194      -0.12895808      -0.77666529       0.97270467       0.00000000
O       10.50195442      11.53527540      12.19193006      -0.55522333       1.00141626       0.30408697      -1.75739542       1.99305194       0.92811884       0.00000000
H       11.68588126      12.33377315       9.99490119      -0.56832973       0.23391638      -0.06717041       0.36158386      -0.13257917       0.17920217       0.00000000
H       13.36245170      11.29018959      10.21782908       0.34269807      -0.25004208      -0.47044036      -0.73758907       0.64812032       0.61705631       0.00000000
H       12.74292460      12.67754572      11.51146461      -0.17439528       0.31508572       0.43104206       0.82345795       1.32120936       0.99816895       0.00000000
H       11.20916058       9.99077632      10.94829753      -0.27520926      -0.25481152      -0.05804480      -0.15953906      -1.72127649      -1.44807366       0.00000000
H       12.32072528      10.32778890      12.40913113       0.44127049      -0.21455324       0.23198934       0.83674447      -0.64348189       0.67883671       0.00000000
H        9.94119796      10.81900358      12.77415410      -0.38699792      -0.38668176       0.38746446      -0.03780683      -0.34953069       0.11425397       0.00000000
9
Lattice="23.296006118037088 0.0 0.0 0.0 22.649327160371357 0.0 0.0 0.0 22.71683509278982" Properties=species:S:1:pos:R:3:momenta:R:3:forces:R:3:magmoms:R:1 Energy:=T 4.1390592=T energy=-37.43079827711742 dipole="-0.029145318624709572 -0.2885279614085264 0.07825857722756535" magmom=0.0 free_energy=-37.43079827711742 pbc="T T T"
C       12.42732532      11.83863628      10.81695350       0.33117543       0.17955498       0.76568839       0.94255443       0.20972482      -3.39037736       0.00000000
C       11.62757347      10.82714093      11.61061335       0.71280007       0.05551727       0.67285932      -0.10846448      -1.60211500       1.06003179       0.00000000
O       10.50011753      11.53849977      12.19293351      -0.65179563       1.08281662       0.36276638      -2.17522371       1.32173549       1.46142536       0.00000000
H       11.65862278      12.34501179       9.99184282      -0.54128696       0.22186208      -0.04946293       0.73965231      -0.35829663       0.54188247       0.00000000
H       13.37826669      11.27878209      10.19564579       0.29639216      -0.21151481      -0.43268753      -1.14808101       0.92078795       0.92031559       0.00000000
H       12.73541268      12.69447868      11.53366088      -0.13770521       0.36730771       0.46899280       0.67063557       0.80537593       0.54726175       0.00000000
H       11.19556049       9.97630147      10.94373676      -0.27636930      -0.32752464      -0.11924559       0.11229985      -1.23974874      -1.04414617       0.00000000
H       12.34322677      10.31656515      12.42124673       0.47229265      -0.23944183       0.25533948       0.42654039      -0.37003188       0.27202834       0.00000000
H        9.92229676      10.79974481      12.79316950      -0.37538996      -0.38780390       0.37954462       0.51050618       0.30383483      -0.43676603       0.00000000
9
Lattice="23.296006118037088 0.0 0.0 0.0 22.649327160371357 0.0 0.0 0.0 22.71683509278982" Properties=species:S:1:pos:R:3:momenta:R:3:forces:R:3:magmoms:R:1 Energy:=T 4.1390592=T energy=-37.368009930774356 dipole="-0.03141974969160508 -0.28400223845655775 0.07793654561387284" magmom=0.0 free_energy=-37.368009930774356 pbc="T T T"
C       12.42877415      11.83939154      10.81974399       0.38026173       0.20379312       0.59744274       1.05633871       0.77730147      -3.46092592       0.00000000
C       11.63047724      10.82720707      11.61347114       0.70702940      -0.04215337       0.72571690      -0.12652891      -2.37523130       1.09243574       0.00000000
O       10.49795268      11.54192342      12.19415729      -0.76532477       1.13402058       0.44431381      -2.44791255       0.76339355       1.85935063       0.00000000
H       11.63313427      12.35539303       9.99008116      -0.49722435       0.19999513      -0.01626592       1.05466607      -0.53216973       0.80996668       0.00000000
H       13.39133433      11.26957803      10.17566482       0.23313360      -0.16118299      -0.38166488      -1.42793563       1.12882550       1.15742986       0.00000000
H       12.72950559      12.71333889      11.55716673      -0.10850669       0.39405093       0.48467932       0.51838744       0.28366194       0.09152523       0.00000000
H       11.18222912       9.95885991      10.93667736      -0.26393422      -0.37555556      -0.16039501       0.39408190      -0.71616762      -0.63154147       0.00000000
H       12.36674896      10.30445592      12.43401329       0.48355505      -0.25129447       0.25952982       0.03208765      -0.11263147      -0.10138919       0.00000000
H        9.90461720      10.78121311      12.81113973      -0.34012912      -0.36040904       0.34779387       0.92538674       0.81173940      -0.85618873       0.00000000
9
Lattice="23.296006118037088 0.0 0.0 0.0 22.649327160371357 0.0 0.0 0.0 22.71683509278982" Properties=species:S:1:pos:R:3:momenta:R:3:forces:R:3:magmoms:R:1 Energy:=T 4.1390592=T energy=-36.92579352051232 dipole="0.029765991412773286 -0.27933551040957366 0.06180835576908072" magmom=0.0 free_energy=-36.92579352051232 pbc="T T T"
C       12.43097140      11.91746381      10.85106312      -0.34638295       0.19973163       0.40119095       0.93919658       1.70464020       0.55130463       0.00000000
C       11.67154022      10.74039572      11.72354148       0.07619193       0.76262446       0.44543341       0.19370817       0.11859258      -0.23990128       0.00000000
O       10.41478128      11.60430299      12.29387517      -0.02799855      -0.91848263       1.04307416       0.98380938      -2.24630633      -0.16959244       0.00000000
H       11.54146673      12.49581394      10.13805429       0.30714408      -0.00182597       0.18181484       1.24084436      -0.67428622       1.05083654       0.00000000
H       13.40147479      11.62993361      10.10655088      -0.36846765       0.25174428       0.28372910      -1.17164936      -0.26178016       0.69451395       0.00000000
H       13.01733382      12.80663343      11.66586668       0.14119697      -0.09270291      -0.12287878      -1.52046244      -1.63753817      -1.49606996       0.00000000
H       11.43291769       9.74542099      10.87930249       0.04679488      -0.04475830       0.01227053      -0.00204394       1.47310617       1.37747437       0.00000000
H       12.46050667      10.23499141      12.65077066      -0.19520939       0.12220936       0.24464994      -1.19154011       0.83832630      -1.30053081       0.00000000
H        9.84407912      10.80281253      12.88343583       0.15763171       0.48918841      -0.20005633       0.50681528       0.67079495      -0.49765897       0.00000000
9
Lattice="23.296006118037088 0.0 0.0 0.0 22.649327160371357 0.0 0.0 0.0 22.71683509278982" Properties=species:S:1:pos:R:3:momenta:R:3:forces:R:3:magmoms:R:1 Energy:=T 4.1390592=T energy=-37.020804722881635 dipole="0.029189308235816 -0.27840015593990025 0.06363079307374823" magmom=0.0 free_energy=-37.020804722881635 pbc="T T T"
C       12.42964933      11.91845169      10.85275897      -0.30295735       0.28273731       0.43750858       0.82918149       1.67551904       0.92762265       0.00000000
C       11.67187122      10.74352603      11.72533878       0.08304568       0.76779266       0.43491823       0.08539015       0.09186724      -0.18829817       0.00000000
O       10.41476950      11.60131411      12.29706440       0.03004053      -1.01434848       1.02402964       1.37965922      -1.65754490      -0.60593915       0.00000000
H       11.55791658      12.49491819      10.14817030       0.36199418      -0.03168408       0.22977119       0.99276272      -0.54159629       0.90204287       0.00000000
H       13.38211982      11.64188630      10.12120619      -0.41680942       0.23458260       0.31063801      -0.79692519      -0.43707851       0.40127112       0.00000000
H       13.02239423      12.80015730      11.65808954       0.06625801      -0.17122105      -0.19417396      -1.53120349      -1.55987900      -1.40721414       0.00000000
H       11.43519527       9.74500276      10.88154849       0.04687798       0.02807026       0.08023719       0.00542770       1.49262028       1.39026569       0.00000000
H       12.44956968      10.24194896      12.66113482      -0.25206527       0.16283994       0.18020651      -1.12374655       0.81623281      -1.32373604       0.00000000
H        9.85236592      10.82745019      12.87309290       0.17357778       0.50812772      -0.21489881       0.14254102       0.10045215      -0.10675661       0.00000000
9
Lattice="23.296006118037088 0.0 0.0 0.0 22.649327160371357 0.0 0.0 0.0 22.71683509278982" Properties=species:S:1:pos:R:3:momenta:R:3:forces:R:3:magmoms:R:1 Energy:=T 4.1390592=T energy=-37.10762556932153 dipole="0.028875064024235262 -0.2780947673957038 0.0658137436689588" magmom=0.0 free_energy=-37.10762556932153 pbc="T T T"
C       12.42849378      11.91977606      10.85464111      -0.26644100       0.36202968       0.49402756       0.65783845       1.55342684       1.37394467       0.00000000
C       11.67221937      10.74667479      11.72709828       0.08389471       0.77342391       0.42682597      -0.05081583       0.13744858      -0.14123490       0.00000000
O       10.41496572      11.59807533      12.30016227       0.10986131      -1.07816457       0.98101976       1.87080425      -0.94117546      -1.14551004       0.00000000
H       11.57674211      12.49272641      10.16044489       0.40296768      -0.05397366       0.26896472       0.67576100      -0.36608055       0.69399706       0.00000000
H       13.36085781      11.65279306      10.13682173      -0.44474294       0.20853906       0.32151345      -0.34058446      -0.62346706       0.04159878       0.00000000
H       13.02379049      12.78994839      11.64694494      -0.00809953      -0.24444416      -0.25961868      -1.49678587      -1.42191434      -1.25782723       0.00000000
H       11.43748583       9.74815636      10.88712139       0.04712524       0.10082574       0.14785105       0.00464121       1.47012980       1.36310742       0.00000000
H       12.43594357      10.25085974      12.66833131      -0.30489294       0.20191603       0.11569775      -1.02750304       0.77502466      -1.30319117       0.00000000
H        9.86099381      10.85232824      12.86249450       0.16957835       0.49648567      -0.20829252      -0.30540590      -0.57454018       0.37577786       0.00000000
9
Lattice="23.296006118037088 0.0 0.0 0.0 22.649327160371357 0.0 0.0 0.0 22.71683509278982" Properties=species:S:1:pos:R:3:momenta:R:3:forces:R:3:magmoms:R:1 Energy:=T 4.1390592=T energy=-37.16717018435838 dipole="0.0287765680743336 -0.27833948016304366 0.06825048987537122" magmom=0.0 free_energy=-37.16717018435838 pbc="T T T"
C       12.42747035      11.92141240      10.85679917      -0.23961840       0.43269182       0.57372150       0.43443169       1.32407850       1.87135361       0.00000000
C       11.67255732      10.74985115      11.72882940       0.07747586       0.78299888       0.42082786      -0.21057279       0.25246369      -0.10302041       0.00000000
O       10.41544400      11.59469464      12.30308744       0.21525372      -1.10509449       0.91015305       2.42098808      -0.15546508      -1.74032550       0.00000000
H       11.59718472      12.48965860      10.17438020       0.42653771      -0.06634852       0.29662572       0.28405815      -0.13784896       0.43241477       0.00000000
H       13.33878079      11.66220788      10.15253682      -0.44846753       0.17275164       0.31316930       0.18891164      -0.83386884      -0.38138937       0.00000000
H       13.02160495      12.77633686      11.63279038      -0.07938863      -0.30932416      -0.31639655      -1.40625085      -1.22013027      -1.05428248       0.00000000
H       11.43978750       9.75482796      10.89595619       0.04697749       0.17120757       0.21284504      -0.01065767       1.39596087       1.28357937       0.00000000
H       12.41985867      10.26162514      12.67240926      -0.35213088       0.23826315       0.05346078      -0.89612146       0.70510372      -1.23122413       0.00000000
H        9.86889088      10.87583142      12.85279534       0.14188260       0.44978702      -0.17676454      -0.82242085      -1.32712335       0.90810516       0.00000000
9
Lattice="23.296006118037088 0.0 0.0 0.0 22.649327160371357 0.0 0.0 0.0 22.71683509278982" Properties=species:S:1:pos:R:3:momenta:R:3:forces:R:3:magmoms:R:1 Energy:=T 4.1390592=T energy=-37.192114597453184 dipole="0.028766816606324797 -0.2788933963731163 0.07072813493561239" magmom=0.0 free_energy=-37.192114597453184 pbc="T T T"
C       12.42653417      11.92331465      10.85933305      -0.22462908       0.48900364       0.67799655       0.17596408       0.96905276       2.37493725       0.00000000
C       11.67285298      10.75307822      11.73053984       0.06275635       0.79990353       0.41628548      -0.38883543       0.43592772      -0.08195435       0.00000000
O       10.41628728      11.59129052      12.30575022       0.34703091      -1.09417177       0.81075788       2.94524543       0.60026013      -2.30724725       0.00000000
H       11.61830709      12.48626092      10.18935028       0.42946150      -0.06631890       0.31012296      -0.16499538       0.13905518       0.11722025       0.00000000
H       13.31715583      11.66962726      10.16733926      -0.42542445       0.12641463       0.28335704       0.74944922      -1.05306821      -0.83262627       0.00000000
H       13.01605427      12.75980556      11.61611293      -0.14495442      -0.36273287      -0.36114769      -1.26372066      -0.95478074      -0.76807429       0.00000000
H       11.44206366       9.76484009      10.90786258       0.04593367       0.23676267       0.27294215      -0.03184895       1.27357530       1.16369649       0.00000000
H       12.40162935      10.27407785      12.67354092      -0.39134379       0.27047777      -0.00400069      -0.70070752       0.60674067      -1.10872318       0.00000000
H        9.87481990      10.89615880      12.84526926       0.08917350       0.36761848      -0.11948482      -1.32400048      -2.01894544       1.42444106       0.00000000
9
Lattice="23.296006118037088 0.0 0.0 0.0 22.649327160371357 0.0 0.0 0.0 22.71683509278982" Properties=species:S:1:pos:R:3:momenta:R:3:forces:R:3:magmoms:R:1 Energy:=T 4.1390592=T energy=-37.189671174470114 dipole="0.02864764050894474 -0.27938431761975635 0.07296811370789674" magmom=0.0 free_energy=-37.189671174470114 pbc="T T T"
C       12.42563332      11.92541151      10.86234388      -0.22254377       0.52440646       0.80539147      -0.09104615       0.47262135       2.81284180       0.00000000
C       11.67307055      10.75639283      11.73223382       0.03900986       0.82746463       0.41233442      -0.57816973       0.68641584      -0.07894094       0.00000000
O       10.41757462      11.58797690      12.30806514       0.50128786      -1.04978167       0.68668858       3.33640968       1.20739467      -2.74510554       0.00000000
H       11.63903462      12.48319600      10.20460087       0.40949089      -0.05195143       0.30666122      -0.64824845       0.44601747      -0.25818934       0.00000000
H       13.29732430      11.67452665      10.18014922      -0.37543389       0.06954986       0.23209226       1.28626764      -1.26258018      -1.25497901       0.00000000
H       13.00747953      12.74098949      11.59759749      -0.20132887      -0.40029601      -0.38923937      -1.03196097      -0.57486630      -0.37587585       0.00000000
H       11.44426361       9.77789986      10.92255368       0.04348577       0.29500454       0.32598343      -0.06783429       1.09815146       0.99625156       0.00000000
H       12.38172324      10.28798249      12.67201941      -0.42002126       0.29741525      -0.05400692      -0.46709697       0.49020801      -0.92763135       0.00000000
H        9.87758060      10.91165487      12.84115186       0.01454822       0.25527175      -0.03971320      -1.71489195      -2.55604090       1.82402069       0.00000000
9
Lattice="23.296006118037088 0.0 0.0 0.0 22.649327160371357 0.0 0.0 0.0 22.71683509278982" Properties=species:S:1:pos:R:3:momenta:R:3:forces:R:3:magmoms:R:1 Energy:=T 4.1390592=T energy=-37.17745819176666 dipole="0.028240417890168568 -0.2794098950030599 0.07462924725014984" magmom=0.0 free_energy=-37.17745819176666 pbc="T T T"
C       12.42471418      11.92760329      10.86591960      -0.23307968       0.53188853       0.95022635      -0.33799733      -0.16793623       3.08512730       0.00000000
C       11.67317200      10.75984529      11.73391195       0.00591525       0.86861618       0.40798562      -0.76950963       0.98935874      -0.09815102       0.00000000
O       10.41936497      11.58484532      12.30996619       0.66858121      -0.98199572       0.54690245       3.47611394       1.55298632      -2.94726819       0.00000000
H       11.65821090      12.48119839      10.21923361       0.36532360      -0.02241704       0.28488641      -1.15033293       0.75668268      -0.62852488       0.00000000
H       13.28057079      11.67640471      10.18995604      -0.30190929       0.00330470       0.16159006       1.70780244      -1.43505658      -1.61601303       0.00000000
H       12.99643531      12.72079777      11.57818258      -0.24396088      -0.41684587      -0.39633934      -0.70410075      -0.09907735       0.08675086       0.00000000
H       11.44630124       9.79358750      10.93962881       0.03911418       0.34326061       0.36965852      -0.11018601       0.86693347       0.78228657       0.00000000
H       12.36069938      10.30306019      12.66827809      -0.43651043       0.31804403      -0.09346889      -0.20437562       0.34983751      -0.67933983       0.00000000
H        9.87623759      10.92103436      12.84139932      -0.07396224       0.12351287       0.05428414      -1.88943285      -2.80944726       2.00374097       0.00000000
9
Lattice="23.296006118037088 0.0 0.0 0.0 22.649327160371357 0.0 0.0 0.0 22.71683509278982" Properties=species:S:1:pos:R:3:momenta:R:3:forces:R:3:magmoms:R:1 Energy:=T 4.1390592=T energy=-37.170930502158576 dipole="0.02745046861783005 -0.2786082975145471 0.07537797326828383" magmom=0.0 free_energy=-37.170930502158576 pbc="T T T"
C       12.42372717      11.92976134      10.87011491      -0.25479361       0.50480924       1.10182128      -0.54623814      -0.93478739       3.08812469       0.00000000
C       11.67311892      10.76349644      11.73557036      -0.03644368       0.92575965       0.40226281      -0.95543140       1.33763868      -0.13489308       0.00000000
O       10.42167942      11.58194787      12.31142289       0.83473888      -0.90506123       0.40456742       3.29016228       1.57994174      -2.84890211       0.00000000
H       11.67463444      12.48101152      10.23236230       0.29827811       0.02170953       0.24579741      -1.57989490       1.04024040      -0.96325825       0.00000000
H       13.26790403      11.67484869      10.19589575      -0.21208217      -0.06987317       0.07673783       1.95013996      -1.54489445      -1.83934145       0.00000000
H       12.98370618      12.70036896      11.55897526      -0.26808021      -0.40749181      -0.37815495      -0.27808701       0.47999349       0.65375441       0.00000000
H       11.44807519       9.81134971      10.95857593       0.03229629       0.37854830       0.40157998      -0.16745205       0.57005273       0.51761959       0.00000000
H       12.33918645      10.31897504      12.66291111      -0.43896178       0.33109558      -0.11925263       0.10455201       0.18164799      -0.37062624       0.00000000
H        9.87037318      10.92369087      12.84644171      -0.16431687      -0.01210574       0.15040173      -1.78999062      -2.71321689       1.91036206       0.00000000
9
Lattice="23.296006118037088 0.0 0.0 0.0 22.649327160371357 0.0 0.0 0.0 22.71683509278982" Properties=species:S:1:pos:R:3:momenta:R:3:forces:R:3:magmoms:R:1 Energy:=T 4.1390592=T energy=-37.17125012324255 dipole="0.026329001940851422 -0.2767712189887647 0.07497086906492598" magmom=0.0 free_energy=-37.17125012324255 pbc="T T T"
C       12.42263046      11.93173166      10.87493039      -0.28576992       0.43813395       1.24500779      -0.71517953      -1.78036514       2.74271984       0.00000000
C       11.67287396      10.76741623      11.73720168      -0.08754577       1.00100138       0.39457840      -1.12554904       1.72635682      -0.17803176       0.00000000
O       10.42448991      11.57928863      12.31245006       0.98397257      -0.83355354       0.27388130       2.78693562       1.33199618      -2.47290127       0.00000000
H       11.68727731      12.48331393      10.24318592       0.21274298       0.07791744       0.19198008      -1.90326852       1.24865942      -1.22829259       0.00000000
H       13.25990394      11.66959575      10.19743394      -0.11582676      -0.14629676      -0.01436169       1.96957478      -1.56722860      -1.87041553       0.00000000
H       12.97031159      12.68108877      11.54133237      -0.26960404      -0.36725648      -0.33039855       0.21603350       1.15847084       1.29098253       0.00000000
H       11.44944843       9.83047604      10.97876172       0.02228832       0.39753684       0.41908223      -0.24009296       0.20319898       0.19510765       0.00000000
H       12.31792371      10.33532458      12.65665723      -0.42566823       0.33536069      -0.12839116       0.43678805      -0.00796380      -0.00151317       0.00000000
H        9.86022534      10.91985469      12.85605557      -0.24326190      -0.13567127       0.23572141      -1.42481058      -2.31862133       1.56402787       0.00000000
9
Lattice="23.296006118037088 0.0 0.0 0.0 22.649327160371357 0.0 0.0 0.0 22.71683509278982" Properties=species:S:1:pos:R:3:momenta:R:3:forces:R:3:magmoms:R:1 Energy:=T 4.1390592=T energy=-37.16950903281764 dipole="0.02505103175223671 -0.2738389970671053 0.07336673664960133" magmom=0.0 free_energy=-37.16950903281764 pbc="T T T"
C       12.42139012      11.93334444      10.88029668      -0.32428493       0.33023806       1.36254292      -0.85322975      -2.61337378       2.04354855       0.00000000
C       11.67240297      10.77168272      11.73879725      -0.14630009       1.09597286       0.38499045      -1.26704605       2.14107391      -0.21240895       0.00000000
O       10.42772058      11.57683021      12.31310440       1.10301880      -0.77808315       0.16609937       2.06086747       0.92687015      -1.91619669       0.00000000
H       11.69536568      12.48860437      10.25107025       0.11519020       0.14136231       0.12838468      -2.06927823       1.33494382      -1.36144064       0.00000000
H       13.25661702      11.66059245      10.19449624      -0.02427338      -0.22134081      -0.10216961       1.75866394      -1.48871714      -1.70530060       0.00000000
H       12.95743398      12.66458078      11.52677879      -0.24560417      -0.29345052      -0.25120710       0.76128969       1.84705684       1.93385378       0.00000000
H       11.45024712       9.85008863      10.99941440       0.00842967       0.39703935       0.41959547      -0.32425903      -0.22345796      -0.17420743       0.00000000