9
Lattice="23.296006118037088 0.0 0.0 0.0 22.649327160371357 0.0 0.0 0.0 22.71683509278982" Properties=species:S:1:pos:R:3:momenta:R:3:forces:R:3:magmoms:R:1 Energy:=T 4.1390592=T energy=-36.7851596805511 dipole="-0.018212388069190347 -0.3056033326985832 0.08365195774708452" magmom=0.0 free_energy=-36.7851596805511 pbc="T T T"
C       12.42277095      11.83531229      10.79581508       0.16640562       0.37288866       0.30289205      -0.20067783      -0.97264419       0.71462065       0.00000000
C       11.61673869      10.82387783      11.60447449       1.02100432      -0.25362706       1.35408730      -0.15344913       0.79517647       0.25555321       0.00000000
O       10.51212841      11.53080253      12.19069583       1.53124669       1.51389108       0.72729647       0.76709288       5.14666211      -1.82831909       0.00000000
H       11.79526681      12.27956083      10.00380696       0.02133685      -0.23755845       0.02739551      -1.75025305       1.25826087      -2.06615618       0.00000000
H       13.28663095      11.34420160      10.30150233      -0.13815787       0.01695923      -0.23852850       2.20946162      -1.19994747      -1.17489743       0.00000000
H       12.78944469      12.64853742      11.45988772      -0.08545765       0.03136544       0.16301400       0.86993724       1.93730582       1.52716489       0.00000000
H       11.25085353      10.00700619      10.92329219      -0.10667382       0.09016435      -0.09162112      -0.50309572      -2.18391974      -1.79315296       0.00000000
H       12.27444976      10.34563854      12.40035721       0.34034235      -0.15236139       0.33478694       1.61351081      -1.10595074       1.34638438       0.00000000
H       10.00556760      10.88197488      12.70304179       0.04217076       0.17573247      -0.21095671      -2.93597895      -3.68513891       2.93750975       0.00000000
9
Lattice="23.296006118037088 0.0 0.0 0.0 22.649327160371357 0.0 0.0 0.0 22.71683509278982" Properties=species:S:1:pos:R:3:momenta:R:3:forces:R:3:magmoms:R:1 Energy:=T 4.1390592=T energy=-36.86184738621937 dipole="-0.025144057484513056 -0.3058668698146945 0.07884574276142754" magmom=0.0 free_energy=-36.86184738621937 pbc="T T T"
C       12.42343123      11.83673938      10.79712537       0.16230863       0.32539902       0.34166134       0.03384036      -0.96122998       0.86414326       0.00000000
C       11.62089821      10.82292058      11.61003707       1.01938835      -0.22416435       1.37144314       0.08764346       0.40460434       0.45121183       0.00000000
O       10.51688683      11.53583783      12.19279065       1.57267514       1.76581633       0.63859489       0.91995742       5.11224355      -1.78378843       0.00000000
H       11.79421226      12.26949161      10.00266962      -0.06666503      -0.17441106      -0.07476638      -1.83336158       1.31322889      -2.09408264       0.00000000
H       13.28254300      11.34359219      10.28847458      -0.03168389      -0.04002389      -0.29353590       2.12637404      -1.12052069      -1.06511500       0.00000000
H       12.78632176      12.65238364      11.46965761      -0.04389424       0.12288828       0.23355425       0.82260891       1.78968922       1.34537695       0.00000000
H       11.24505404      10.00878628      10.91668258      -0.12863343      -0.01224140      -0.17404141      -0.39114412      -1.98624966      -1.56316828       0.00000000
H       12.29296305      10.33689167      12.41828020       0.40952387      -0.20038445       0.38918215       1.20370084      -0.84964575       0.86869849       0.00000000
H       10.00410943      10.88612797      12.69627792      -0.10430312      -0.00601368      -0.06699558      -3.02873367      -3.71593177       2.92487888       0.00000000
9
Lattice="23.296006118037088 0.0 0.0 0.0 22.649327160371357 0.0 0.0 0.0 22.71683509278982" Properties=species:S:1:pos:R:3:momenta:R:3:forces:R:3:magmoms:R:1 Energy:=T 4.1390592=T energy=-37.059731539276754 dipole="-0.03202723663788698 -0.3036058161859284 0.0736658878223958" magmom=0.0 free_energy=-37.059731539276754 pbc="T T T"
C       12.42409832      11.83797343      10.79860921       0.17146916       0.28291673       0.38230370       0.33919502      -0.76873482       0.79089605       0.00000000
C       11.62507534      10.82204460      11.61569026       1.02932395      -0.21901900       1.39625692       0.31695447      -0.19507531       0.55925531       0.00000000
O       10.52178395      11.54164388      12.19461653       1.60919387       2.00255520       0.56360627       0.56715905       4.52824223      -1.26990010       0.00000000
H       11.78877048      12.26256493       9.99652117      -0.15409284      -0.11163376      -0.17288920      -1.72687563       1.24318949      -1.90167709       0.00000000
H       13.28354344      11.34030138      10.27289803       0.06623941      -0.09070207      -0.34053667       1.86126080      -0.94319721      -0.84885156       0.00000000
H       12.78516731      12.66051256      11.48264697      -0.00629156       0.20356779       0.29226410       0.70864814       1.49574387       1.04540675       0.00000000
H       11.23831854      10.00581330      10.90633231      -0.14354509      -0.10152215      -0.24228060      -0.21608874      -1.64944317      -1.21566927       0.00000000
H       12.31435678      10.32611160      12.43828199       0.45732710      -0.23504438       0.41918432       0.74294323      -0.56177649       0.35305079       0.00000000
H        9.99540353      10.88138887      12.69651325      -0.24316792      -0.17514520       0.06524808      -2.62612198      -3.17144592       2.46035024       0.00000000
9
Lattice="23.296006118037088 0.0 0.0 0.0 22.649327160371357 0.0 0.0 0.0 22.71683509278982" Properties=species:S:1:pos:R:3:momenta:R:3:forces:R:3:magmoms:R:1 Energy:=T 4.1390592=T energy=-37.29842408248009 dipole="-0.03856909947153808 -0.29925706814190867 0.06830596183809876" magmom=0.0 free_energy=-37.29842408248009 pbc="T T T"
C       12.42483352      11.83905310      10.80025188       0.19589735       0.25304404       0.41436463       0.65557015      -0.44774138       0.51468991       0.00000000
C       11.62931611      10.82112943      11.62145577       1.04920871      -0.24556221       1.42365010       0.49279310      -0.88581753       0.55625046       0.00000000
O       10.52676658      11.54813265      12.19625095       1.61971017       2.20159977       0.52046234      -0.13891380       3.57725543      -0.48700811       0.00000000
H       11.77919631      12.25861319       9.98582202      -0.23241956      -0.05460417      -0.25660148      -1.46274684       1.07917090      -1.50725624       0.00000000
H       13.28899785      11.33475351      10.25529018       0.14783404      -0.13058110      -0.37512617       1.46143767      -0.68075759      -0.55970280       0.00000000
H       12.78570866      12.67222079      11.49813798       0.02458536       0.26759079       0.33426959       0.54872267       1.11140220       0.66514199       0.00000000
H       11.23106595       9.99889321      10.89307297      -0.14901772      -0.17245969      -0.29148664      -0.00676787      -1.23927661      -0.78810034       0.00000000
H       12.33752837      10.31398721      12.45912861       0.48331311      -0.25572018       0.42493655       0.31525946      -0.28018407      -0.11880826       0.00000000
H        9.98041336      10.86906053      12.70263617      -0.35367781      -0.30774160       0.16784461      -1.87406422      -2.22814756       1.71758802       0.00000000
9
Lattice="23.296006118037088 0.0 0.0 0.0 22.649327160371357 0.0 0.0 0.0 22.71683509278982" Properties=species:S:1:pos:R:3:momenta:R:3:forces:R:3:magmoms:R:1 Energy:=T 4.1390592=T energy=-37.488101595072955 dipole="-0.04441829772604095 -0.29362158437441527 0.06303450048524147" magmom=0.0 free_energy=-37.488101595072955 pbc="T T T"
C       12.42570038      11.84004284      10.80199792       0.23504727       0.24048237       0.42938575       0.93869363      -0.06379534       0.09700032       0.00000000
C       11.63365585      10.82003637      11.62733299       1.07638410      -0.30570289       1.44864645       0.61384358      -1.56323298       0.46165156       0.00000000
O       10.53172827      11.55516075      12.19781195       1.59241544       2.35106616       0.51669579      -0.97258316       2.50931812       0.33362661       0.00000000
H       11.76612181      12.25724390       9.97151603      -0.29511642      -0.00710940      -0.31807644      -1.09039584       0.85491213      -0.99612859       0.00000000
H       13.29794947      11.32757659      10.23634297       0.20826673      -0.15674056      -0.39434281       0.99950368      -0.38450838      -0.22283767       0.00000000
H       12.78756309      12.68658858      11.51522066       0.04730843       0.31162649       0.35645355       0.37660651       0.68182028       0.23823373       0.00000000
H       11.22379716       9.98900755      10.87792771      -0.14387696      -0.22277572      -0.31914287       0.21611033      -0.80969421      -0.33811719       0.00000000
H       12.36145437      10.30119234      12.47969093       0.48924640      -0.26350842       0.40927332      -0.07364381      -0.03696860      -0.51903040       0.00000000
H        9.96093856      10.85140026      12.71286926      -0.42476312      -0.39122079       0.23260929      -1.02067351      -1.17129390       0.91976069       0.00000000
9
Lattice="23.296006118037088 0.0 0.0 0.0 22.649327160371357 0.0 0.0 0.0 22.71683509278982" Properties=species:S:1:pos:R:3:momenta:R:3:forces:R:3:magmoms:R:1 Energy:=T 4.1390592=T energy=-37.57334048335145 dipole="-0.04930936175629804 -0.2876095645501989 0.05812459997923049" magmom=0.0 free_energy=-37.57334048335145 pbc="T T T"
C       12.42675576      11.84101978      10.80376344       0.28673024       0.24681686       0.42234001       1.16594145       0.32174876      -0.38391713       0.00000000
C       11.63811887      10.81862937      11.63330292       1.10835659      -0.39704888       1.46809405       0.68814112      -2.15656018       0.33029412       0.00000000
O       10.53654333      11.56256718      12.19942324       1.52601099       2.44959688       0.55050581      -1.73154007       1.50305195       1.04318593       0.00000000
H       11.75043800      12.25792040       9.95482631      -0.33813009       0.02868129      -0.35341347      -0.66120784       0.60255711      -0.44286673       0.00000000
H       13.30929290      11.31947955      10.21686251       0.24568127      -0.16823540      -0.39704424       0.52409211      -0.08358492       0.11283003       0.00000000
H       12.79031874      12.70258797      11.53287344       0.06175415       0.33457427       0.35839944       0.21165269       0.25266000      -0.15899322       0.00000000
H       11.21704552       9.97718430      10.86197334      -0.12837610      -0.25273190      -0.32538282       0.41511568      -0.41018203       0.08401371       0.00000000
H       12.38520414      10.28830901      12.49901122       0.47758719      -0.26021312       0.37567222      -0.40114275       0.17115974      -0.84927429       0.00000000
H        9.93902131      10.83093709      12.72530333      -0.45490640      -0.42503898       0.26010311      -0.20682154      -0.20585123       0.19984328       0.00000000
9
Lattice="23.296006118037088 0.0 0.0 0.0 22.649327160371357 0.0 0.0 0.0 22.71683509278982" Properties=species:S:1:pos:R:3:momenta:R:3:forces:R:3:magmoms:R:1 Energy:=T 4.1390592=T energy=-37.54470895161424 dipole="-0.05309687779772279 -0.2820404561835471 0.05378610460373528" magmom=0.0 free_energy=-37.54470895161424 pbc="T T T"
C       12.42804529      11.84206133      10.80545185       0.34803437       0.27104515       0.39185580       1.33048669       0.66487614      -0.85746155       0.00000000
C       11.64272008      10.81678927      11.63933919       1.14302476      -0.51424476       1.48074849       0.72361668      -2.61589312       0.18502018       0.00000000
O       10.54109732      11.57020022      12.20119181       1.42642976       2.50266799       0.61557853      -2.32360931       0.65811134       1.60670702       0.00000000
H       11.73317192      12.26003881       9.93707682      -0.36009877       0.05234885      -0.36192044      -0.23340134       0.36123381       0.09644595       0.00000000
H       13.32189047      11.31118250      10.19765205       0.26059140      -0.16544871      -0.38350992       0.08307864       0.19706449       0.43831469       0.00000000
H       12.79358087      12.71919196      11.55014575       0.06852194       0.33752194       0.34174141       0.06394523      -0.13262524      -0.51935543       0.00000000
H       11.21128724       9.96437949      10.84622001      -0.10381157      -0.26403945      -0.31185458       0.58520206      -0.05028397       0.46688364       0.00000000
H       12.40799399      10.27583526      12.51629920       0.45098086      -0.24777550       0.32791091      -0.68232090       0.33532528      -1.09566273       0.00000000
H        9.91660913      10.80998133      12.73821563      -0.44895538      -0.41580171       0.25607953       0.44915913       0.58201120      -0.36369147       0.00000000
9
Lattice="23.296006118037088 0.0 0.0 0.0 22.649327160371357 0.0 0.0 0.0 22.71683509278982" Properties=species:S:1:pos:R:3:momenta:R:3:forces:R:3:magmoms:R:1 Energy:=T 4.1390592=T energy=-37.425685679275404 dipole="-0.05575281277864858 -0.27749416419308803 0.0501270951794945" magmom=0.0 free_energy=-37.425685679275404 pbc="T T T"
C       12.42960201      11.84323641      10.80696806       0.41588475       0.31043065       0.33950464       1.43251807       0.93898098      -1.27438342       0.00000000
C       11.64746662      10.81442383      11.64541261       1.17839122      -0.65044967       1.48563186       0.71657731      -2.93064634       0.01384043       0.00000000
O       10.54530099      11.57793248      12.20320263       1.30254992       2.51842422       0.70473048      -2.72102833      -0.01648579       2.02374059       0.00000000
H       11.71534732      12.26302166       9.91955812      -0.36218585       0.06485966      -0.34524888       0.14841115       0.14823169       0.58245350       0.00000000
H       13.33468684      11.30335701      10.17949048       0.25589064      -0.15009316      -0.35496206      -0.27450333       0.42824458       0.72421206       0.00000000
H       12.79699602      12.73547859      11.56617524       0.06866539       0.32316959       0.30866499      -0.05810377      -0.45183145      -0.82758343       0.00000000
H       11.20692935       9.95145435      10.83158393      -0.07147975      -0.25892936      -0.28083166       0.73141464       0.25837709       0.79643230       0.00000000
H       12.42915104      10.26416394      12.53096528       0.41235468      -0.22799156       0.26935166      -0.89061529       0.47031703      -1.28898851       0.00000000
H        9.89527179      10.79041831      12.75025761      -0.41461253      -0.37259682       0.22842609       0.94935121       1.17737933      -0.76241246       0.00000000
9
Lattice="23.296006118037088 0.0 0.0 0.0 22.649327160371357 0.0 0.0 0.0 22.71683509278982" Properties=species:S:1:pos:R:3:momenta:R:3:forces:R:3:magmoms:R:1 Energy:=T 4.1390592=T energy=-37.40066866023262 dipole="-0.05954381873439426 -0.2962162040758156 0.014123856839961924" magmom=0.0 free_energy=-37.40066866023262 pbc="T T T"
C       12.49666587      11.87509727      10.78885006       0.48223794      -0.62119536       0.31332895      -0.05382565      -1.30527955       1.14533638       0.00000000
C       11.75571215      10.73215865      11.73468694       0.80149017       0.91415221       0.38607145       0.00078483       2.46869391      -0.13892838       0.00000000
O       10.59356738      11.71424168      12.30230828       1.42184323       1.52487906       1.25547418       0.00618502      -2.72763387       0.28765980       0.00000000
H       11.63087468      12.28504486      10.11108942      -0.39763009       0.21359782      -0.09346438      -0.22141621       0.11760460      -0.69125911       0.00000000
H       13.45084813      11.45674245      10.20993244       0.51855431       0.04591134      -0.15946565      -0.06932546      -0.07326511      -0.26422505       0.00000000
H       12.85104998      12.81030267      11.43355687       0.22798421       0.36265467       0.08060218       0.03908149      -0.04318925       0.32789883       0.00000000
H       11.41249830       9.82538981      11.02335448      -0.05125522      -0.51622314      -0.05981210      -0.45950757      -0.04850544      -0.22880959       0.00000000
H       12.54493057      10.18496661      12.51355193       0.32418230      -0.15218467       0.40011434      -0.40594568       0.58560628       0.04214991       0.00000000
H        9.79433921      10.95368917      12.70919416      -0.51302964      -0.19186587       0.23266383       1.17844589       0.99783842      -0.50947851       0.00000000
9
Lattice="23.296006118037088 0.0 0.0 0.0 22.649327160371357 0.0 0.0 0.0 22.71683509278982" Properties=species:S:1:pos:R:3:momenta:R:3:forces:R:3:magmoms:R:1 Energy:=T 4.1390592=T energy=-37.32381231800386 dipole="-0.05953773301138279 -0.2893736602719114 0.012020279939803546" magmom=0.0 free_energy=-37.32381231800386 pbc="T T T"
C       12.49863236      11.87242611      10.79024628       0.48278220      -0.67114374       0.35914563       0.07598937      -0.72871967       0.72041175       0.00000000
C       11.75898956      10.73614455      11.73625165       0.80338320       1.01530096       0.38060534       0.07630297       1.65028795      -0.08366287       0.00000000
O       10.59793260      11.71871711      12.30618400       1.41253069       1.38400225       1.27402614      -0.38541068      -3.00915502       0.46781336       0.00000000
H       11.61123575      12.29559285      10.10570840      -0.39608951       0.21355686      -0.11847206       0.28415145      -0.11927288      -0.32710402       0.00000000
H       13.47603106      11.45889176      10.20184654       0.50383431       0.04595465      -0.16632454      -0.53010299       0.07502897      -0.01508279       0.00000000
H       12.86220497      12.82792086      11.43787643       0.22578375       0.35086930       0.09056984      -0.12868837      -0.43673511       0.07800475       0.00000000
H       11.40945116       9.80017948      11.02016645      -0.06910133      -0.50633515      -0.06233022      -0.26722239       0.45116440       0.12626684       0.00000000
H       12.56024022      10.17825229      12.53309741       0.29696762      -0.11867280       0.39422489      -0.70229091       0.77906481      -0.28198015       0.00000000
H        9.77075252      10.94553466      12.71992081      -0.44499791      -0.13500717       0.20311088       1.59194397       1.31756283      -0.69397731       0.00000000
9
Lattice="23.296006118037088 0.0 0.0 0.0 22.649327160371357 0.0 0.0 0.0 22.71683509278982" Properties=species:S:1:pos:R:3:momenta:R:3:forces:R:3:magmoms:R:1 Energy:=T 4.1390592=T energy=-37.189751596476945 dipole="-0.06002068608164401 -0.28297468765649114 0.010417584956339054" magmom=0.0 free_energy=-37.189751596476945 pbc="T T T"
C       12.50061410      11.86960860      10.79178718       0.48922984      -0.69380298       0.38498698       0.18657150      -0.19401024       0.33190020       0.00000000
C       11.76228229      10.74046187      11.73779956       0.80781737       1.07858725       0.37815851       0.10426557       0.92685791      -0.01597671       0.00000000
O       10.60223971      11.72273885      12.31013025       1.38658543       1.23217747       1.29991774      -0.67113254      -3.17345696       0.58654494       0.00000000
H       11.59227680      12.30585541      10.09954463      -0.37100095       0.20269927      -0.12674763       0.73750546      -0.32287006      -0.00989385       0.00000000
H       13.49994546      11.46122061      10.19372455       0.46824829       0.05247588      -0.16164527      -0.91903143       0.19052850       0.20563214       0.00000000
H       12.87305201      12.84449396      11.44238266       0.21591492       0.32090710       0.08901742      -0.27319051      -0.78338602      -0.14122252       0.00000000
H       11.40576456       9.77604878      11.01728057      -0.07788628      -0.47376253      -0.04866779      -0.09051840       0.87525843       0.43009485       0.00000000
H       12.57386929      10.17340226      12.55196811       0.25696132      -0.07648927       0.37402210      -0.92684689       0.93873370      -0.54071831       0.00000000
H        9.75097533      10.94053307      12.72898678      -0.35956586      -0.06506316       0.16565080       1.88702190       1.53069874      -0.83147299       0.00000000
9
Lattice="23.296006118037088 0.0 0.0 0.0 22.649327160371357 0.0 0.0 0.0 22.71683509278982" Properties=species:S:1:pos:R:3:momenta:R:3:forces:R:3:magmoms:R:1 Energy:=T 4.1390592=T energy=-37.02921891122777 dipole="-0.0609247132159246 -0.277170681140087 0.009374255576014493" magmom=0.0 free_energy=-37.02921891122777 pbc="T T T"
C       12.50263332      11.86675213      10.79339474       0.50077205      -0.69169384       0.39294364       0.28345065       0.27989863      -0.00788890       0.00000000
C       11.76559596      10.74496532      11.73934426       0.81259249       1.10916567       0.37928604       0.09018690       0.31835696       0.06189196       0.00000000
O       10.60644563      11.72628215      12.31416494       1.34902008       1.07468456       1.33013831      -0.85860466      -3.23997280       0.64409777       0.00000000
H       11.57508269      12.31534536      10.09335718      -0.32561302       0.18242946      -0.12071854       1.11078310      -0.50255733       0.25541049       0.00000000
H       13.52166063      11.46400540      10.18609464       0.41503574       0.06383928      -0.14704825      -1.24789131       0.27221210       0.38878814       0.00000000
H       12.88324531      12.85919242      11.44655095       0.19955199       0.27555435       0.07798623      -0.39314104      -1.06346997      -0.30798980       0.00000000
H       11.40186135       9.75401257      11.01542390      -0.07881621      -0.42203477      -0.02194334       0.05264963       1.23120063       0.65817875       0.00000000
H       12.58528042      10.17079861      12.56954488       0.20757818      -0.02759967       0.34240833      -1.08413445       1.05214991      -0.74665833       0.00000000
H        9.73571377      10.93919443      12.73606305      -0.26177275       0.01310010       0.12271849       2.09531104       1.65226714      -0.91681742       0.00000000
9
Lattice="23.296006118037088 0.0 0.0 0.0 22.649327160371357 0.0 0.0 0.0 22.71683509278982" Properties=species:S:1:pos:R:3:momenta:R:3:forces:R:3:magmoms:R:1 Energy:=T 4.1390592=T energy=-36.87326124796215 dipole="-0.06213116307797157 -0.27207553065157697 0.008858856207037627" magmom=0.0 free_energy=-36.87326124796215 pbc="T T T"
C       12.50470946      11.86395187      10.79500071       0.51674525      -0.66806558       0.38562517       0.36701039       0.68229175      -0.29013386       0.00000000
C       11.76892774      10.74953271      11.74090139       0.81594977       1.11290263       0.38436230       0.04652830      -0.16618046       0.14482339       0.00000000
O       10.61052211      11.72933695      12.31829673       1.30447239       0.91548833       1.36214575      -0.95546720      -3.24281980       0.65931011       0.00000000
H       11.56054667      12.32363269      10.08778092      -0.26390601       0.15426808      -0.10306355       1.40205104      -0.64423100       0.46353656       0.00000000
H       13.54038960      11.46744158      10.17939509       0.34783066       0.07844289      -0.12441871      -1.48883551       0.32247658       0.53273262       0.00000000
H       12.89249783      12.87134600      11.44998222       0.17775665       0.21802713       0.05967553      -0.49440954      -1.27915479      -0.43765910       0.00000000
H       11.39808412       9.73492261      11.01514225      -0.07333853      -0.35499820       0.01466328       0.17041262       1.49866411       0.83251670       0.00000000
H       12.59409723      10.17071275      12.58533490       0.15135715       0.02593672       0.30166898      -1.20529945       1.12796009      -0.91233068       0.00000000
H        9.72546627      10.94180964      12.74094538      -0.15566466       0.09545038       0.07648380       2.22562518       1.70120300      -0.96595270       0.00000000
9
Lattice="23.296006118037088 0.0 0.0 0.0 22.649327160371357 0.0 0.0 0.0 22.71683509278982" Properties=species:S:1:pos:R:3:momenta:R:3:forces:R:3:magmoms:R:1 Energy:=T 4.1390592=T energy=-36.7492043215306 dipole="-0.06352354089045932 -0.26778442798422203 0.008792861186046861" magmom=0.0 free_energy=-36.7492043215306 pbc="T T T"
C       12.50685930      11.86128863      10.79654841       0.53641236      -0.62641228       0.36589893       0.43387406       1.01391497      -0.51315869       0.00000000
C       11.77226886      10.75406673      11.74248761       0.81662090       1.09577795       0.39344698      -0.01919852      -0.53117121       0.22512337       0.00000000
O       10.61445453      11.73190285      12.32252792       1.25699699       0.75725427       1.39430982      -0.97782745      -3.20079118       0.65047605       0.00000000
H       11.54936574      12.33037838      10.08331390      -0.18984154       0.12008163      -0.07647277       1.61400412      -0.74791043       0.61929351       0.00000000
H       13.55555581      11.47164945      10.17397036       0.27003002       0.09471861      -0.09565508      -1.67936416       0.34030386       0.63858037       0.00000000
H       12.90056723      12.88043858      11.45236617       0.15153515       0.15134105       0.03608157      -0.57338264      -1.43643695      -0.52313454       0.00000000
H       11.39471470       9.71941893      11.01685280      -0.06267503      -0.27643948       0.05826586       0.26382666       1.70040601       0.94306874       0.00000000
H       12.60002978      10.17332608      12.59894173       0.09035502       0.08246516       0.25404199      -1.27883059       1.17399214      -1.02713659       0.00000000
H        9.72054466      10.94849582      12.74351619      -0.04478848       0.17877888       0.02872940       2.28947720       1.69210218      -0.97870293       0.00000000
9
Lattice="23.296006118037088 0.0 0.0 0.0 22.649327160371357 0.0 0.0 0.0 22.71683509278982" Properties=species:S:1:pos:R:3:momenta:R:3:forces:R:3:magmoms:R:1 Energy:=T 4.1390592=T energy=-36.677201363406155 dipole="-0.06500350832195918 -0.2643834839379086 0.009082019843066058" magmom=0.0 free_energy=-36.677201363406155 pbc="T T T"
C       12.50909628      11.85882902      10.79799306       0.55881595      -0.57014361       0.33655937       0.47844540       1.27745903      -0.68160758       0.00000000
C       11.77560613      10.75849408      11.74411903       0.81371155       1.06327054       0.40626245      -0.09927592      -0.79259601       0.29674823       0.00000000
O       10.61823952      11.73398617      12.32685719       1.20969697       0.60226844       1.42546748      -0.94832473      -3.11054543       0.61832678       0.00000000
H       11.54204711      12.33533432      10.08032885      -0.10696401       0.08147997      -0.04348333       1.76093644      -0.82402753       0.72410351       0.00000000
H       13.56670332      11.47667166      10.17007375       0.18461914       0.11118443      -0.06278191      -1.79873963       0.33021733       0.70008162       0.00000000
H       12.90726453      12.88609379      11.45349827       0.12201312       0.07821411       0.00905963      -0.62881425      -1.54144012      -0.57725364       0.00000000
H       11.39197661       9.70798431      11.02082010      -0.04792319      -0.18919537       0.10622847       0.33689825       1.85235044       1.01006579       0.00000000
H       12.60290209      10.17874876      12.61009063       0.02686140       0.14060242       0.20204090      -1.30675808       1.19347492      -1.09045309       0.00000000
H        9.72110175      10.95923118      12.74374498       0.06763382       0.26029271      -0.01895695       2.28858636       1.62730579      -0.96318192       0.00000000
9
Lattice="23.296006118037088 0.0 0.0 0.0 22.649327160371357 0.0 0.0 0.0 22.71683509278982" Properties=species:S:1:pos:R:3:momenta:R:3:forces:R:3:magmoms:R:1 Energy:=T 4.1390592=T energy=-36.66919863278016 dipole="-0.0665117461727599 -0.2619604541297434 0.00961795288926279" magmom=0.0 free_energy=-36.66919863278016 pbc="T T T"
C       12.51142935      11.85662595      10.79930082       0.58265721      -0.50267802       0.30013980       0.49241884       1.46987629      -0.80147105       0.00000000
C       11.77892346      10.76276225      11.74581005       0.80639007       1.01994660       0.42249528      -0.19886987      -0.97164247       0.36428576       0.00000000
O       10.62188154      11.73560052      12.33127968       1.16527285       0.45327877       1.45396256      -0.86071542      -2.95661543       0.54205027       0.00000000
H       11.53894238      12.33831838      10.07907657      -0.01851080       0.03988463      -0.00641309       1.84105703      -0.86981882       0.78547155       0.00000000
H       13.57354646      11.48248408      10.16785243       0.09513116       0.12665876      -0.02781021      -1.84539181       0.29992901       0.72403674       0.00000000
H       12.91245709      12.88806034      11.45324901       0.09025652       0.00156573      -0.01959322      -0.66437860      -1.57983701      -0.58954836       0.00000000
H       11.39004471       9.70098234      11.02720448      -0.03022499      -0.09604640       0.15667085       0.38380802       1.94086407       1.04404979       0.00000000