9
Lattice="23.296006118037088 0.0 0.0 0.0 22.649327160371357 0.0 0.0 0.0 22.71683509278982" Properties=species:S:1:pos:R:3:momenta:R:3:forces:R:3:magmoms:R:1 Energy:=T 4.1390592=T energy=-36.84601615203906 dipole="-0.014672411396628242 -0.30088314628070645 0.09533090465582203" magmom=0.0 free_energy=-36.84601615203906 pbc="T T T"
C       12.42022988      11.82948695      10.79476887      -0.45627151      -1.03666175       0.02285446      -0.25137334      -0.35886328      -0.27008053       0.00000000
C       11.61242100      10.83249975      11.60638016      -0.05792018       1.84897830       1.79214065      -1.09030512       0.55334714      -0.88428709       0.00000000
O       10.50578780      11.52511244      12.18945193      -0.54676982      -0.34170151       0.32779677       0.25701497       5.06471591      -1.59580013       0.00000000
H       11.77797081      12.30498031       9.98974955      -0.31596879       0.27107374      -0.24112982      -1.03045678       0.72583339      -1.25222451       0.00000000
H       13.30354667      11.32722274      10.31084984       0.19622190      -0.32500684      -0.04155297       1.68835020      -0.93499227      -0.96606483       0.00000000
H       12.79219610      12.64486033      11.46448614      -0.03051186      -0.04814878       0.25425355       0.80788751       1.77254931       1.39938690       0.00000000
H       11.25472618       9.98649769      10.93486123      -0.02363721      -0.32160373       0.15157876      -0.35834088      -1.81146261      -1.55867038       0.00000000
H       12.24066773      10.36375883      12.38066867      -0.33182882       0.20585879      -0.04462875       2.47550376      -1.66297834       2.35099368       0.00000000
H        9.99275960      10.88355349      12.71852717      -0.21177603       0.21662989       0.10087505      -2.57260118      -3.33907102       2.69363978       0.00000000
9
Lattice="23.296006118037088 0.0 0.0 0.0 22.649327160371357 0.0 0.0 0.0 22.71683509278982" Properties=species:S:1:pos:R:3:momenta:R:3:forces:R:3:magmoms:R:1 Energy:=T 4.1390592=T energy=-37.007078981861994 dipole="-0.008940762386255935 -0.3051691076358776 0.09261093600466587" magmom=0.0 free_energy=-37.007078981861994 pbc="T T T"
C       12.42029565      11.83408593      10.79110711      -0.44861431       0.08849022      -0.84801779      -0.59453925      -0.34081830       0.73307675       0.00000000
C       11.60884554      10.82201024      11.59991292      -0.90308780      -0.71346836       0.23863798       0.10013652       0.66848681       0.25998879       0.00000000
O       10.50720432      11.52691844      12.18864372      -0.10343750       0.22097807       0.08171598      -0.48043904       4.02075767      -0.89540152       0.00000000
H       11.79108666      12.29654255       9.98558872      -0.05352447       0.10320697      -0.33390624      -1.30509005       0.94202344      -1.55275809       0.00000000
H       13.28421935      11.33105472      10.31915574      -0.18405033      -0.25488287       0.12066860       2.35617815      -1.28207908      -1.30193736       0.00000000
H       12.80021238      12.64772590      11.47043038       0.13086055       0.00528450       0.37176985       0.67949166       1.55348433       1.21684078       0.00000000
H       11.26381438       9.98583487      10.92960822       0.15832274      -0.34285563       0.03748080      -0.54424902      -2.12291982      -1.81464013       0.00000000
H       12.25183825      10.33571370      12.40705366      -0.12312667      -0.35358270       0.47040928       1.63823844      -1.00516200       1.27247464       0.00000000
H       10.00593462      10.85155069      12.73186296       0.07491608      -0.41833180       0.35791716      -1.90926745      -2.44886500       2.01520289       0.00000000
9
Lattice="23.296006118037088 0.0 0.0 0.0 22.649327160371357 0.0 0.0 0.0 22.71683509278982" Properties=species:S:1:pos:R:3:momenta:R:3:forces:R:3:magmoms:R:1 Energy:=T 4.1390592=T energy=-36.923311181319384 dipole="-0.018334732521831966 -0.29649796828745834 0.10266235340499172" magmom=0.0 free_energy=-36.923311181319384 pbc="T T T"
C       12.41833893      11.82521196      10.79483520      -0.46314109      -1.04087770      -0.00543313      -0.02837017       0.18718143      -0.88184760       0.00000000
C       11.61207468      10.84011586      11.61361950      -0.12469059       1.86087507       1.73028385      -1.62872089      -0.06888657      -1.63464688       0.00000000
O       10.50412870      11.52444529      12.19033790      -0.54213098      -0.09444262       0.25455737      -0.06811186       5.00416618      -1.38665644       0.00000000
H       11.76134271      12.31905648       9.97650253      -0.35423151       0.29741173      -0.28770694      -0.52767854       0.34670290      -0.64449004       0.00000000
H       13.31512743      11.31026849      10.30766933       0.26653368      -0.36355724      -0.08239166       1.17488783      -0.63485784      -0.69696918       0.00000000
H       12.79167608      12.64463519      11.47854867       0.00671597       0.03201037       0.31597051       0.70810486       1.49169348       1.11385251       0.00000000
H       11.25314574       9.96866056      10.94038176      -0.03606204      -0.39833718       0.08431706      -0.14762307      -1.31327859      -1.18036203       0.00000000
H       12.22746173      10.37179928      12.38130714      -0.20218988       0.11899435       0.08042190       2.80365624      -1.87431735       2.74132155       0.00000000
H        9.97936298      10.89011331      12.72666510      -0.33250961       0.05878873       0.22800096      -2.34391423      -3.08854039       2.48318435       0.00000000
9
Lattice="23.296006118037088 0.0 0.0 0.0 22.649327160371357 0.0 0.0 0.0 22.71683509278982" Properties=species:S:1:pos:R:3:momenta:R:3:forces:R:3:magmoms:R:1 Energy:=T 4.1390592=T energy=-37.21230246577905 dipole="-0.006879018604583508 -0.30530162244401204 0.09612344066198147" magmom=0.0 free_energy=-37.21230246577905 pbc="T T T"
C       12.41840155      11.83441355      10.78771314      -0.48008179       0.08405383      -0.80745305      -0.68688010       0.16015978       0.91880128       0.00000000
C       11.60516283      10.81915996      11.60091483      -0.88719542      -0.69277576       0.25606702       0.54703329       0.17415765       0.44975687       0.00000000
O       10.50685057      11.52789990      12.18882707      -0.14622593       0.39694701       0.05495810      -1.26199237       3.14505315      -0.19423362       0.00000000
H       11.78691722      12.30269830       9.96746172      -0.11042611       0.14467429      -0.40059740      -1.01206007       0.74660937      -1.16304079       0.00000000
H       13.27807090      11.31710189      10.32347740      -0.06759490      -0.31774824       0.05649160       2.38612271      -1.27792589      -1.31147994       0.00000000
H       12.80740140      12.64984212      11.49000032       0.15896294       0.07053606       0.42094027       0.46489418       1.10369108       0.78547848       0.00000000
H       11.27087726       9.96658962      10.92926322       0.13314100      -0.44057134      -0.04664717      -0.48120250      -1.85626167      -1.61122082       0.00000000
H       12.24779921      10.31728318      12.43149624      -0.05163643      -0.39418100       0.51930904       1.27298859      -0.64808279       0.71882233       0.00000000
H       10.00730038      10.82823797      12.75171318      -0.00353055      -0.51685766       0.44029538      -1.28523806      -1.56330718       1.33940487       0.00000000
9
Lattice="23.296006118037088 0.0 0.0 0.0 22.649327160371357 0.0 0.0 0.0 22.71683509278982" Properties=species:S:1:pos:R:3:momenta:R:3:forces:R:3:magmoms:R:1 Energy:=T 4.1390592=T energy=-37.049880696325715 dipole="-0.022292905576558483 -0.2901312905252276 0.1101152649556874" magmom=0.0 free_energy=-37.049880696325715 pbc="T T T"
C       12.41644228      11.82097456      10.79472444      -0.45623440      -1.01709129      -0.06115616       0.30962485       0.78144935      -1.38730695       0.00000000
C       11.61140127      10.84771814      11.62053057      -0.21106718       1.83525804       1.63936540      -1.88870859      -0.97429078      -2.06773610       0.00000000
O       10.50245935      11.52453261      12.19101480      -0.56268710       0.14051645       0.20042718      -0.76897482       4.56384238      -0.81763458       0.00000000
H       11.74345188      12.33396230       9.96171326      -0.36841604       0.30567043      -0.30554247      -0.04994400      -0.01039216      -0.08180901       0.00000000
H       13.32951968      11.29179504      10.30282099       0.31085532      -0.38718636      -0.10959099       0.62997866      -0.32736776      -0.41064272       0.00000000
H       12.79285055      12.64797965      11.49527663       0.03791531       0.09595975       0.36138344       0.56239536       1.11245480       0.73545377       0.00000000
H       11.25121203       9.94768078      10.94307770      -0.03817090      -0.44965542       0.03612500       0.06174596      -0.77650394      -0.78211606       0.00000000
H       12.22096486      10.37535451      12.38850557      -0.06299160       0.02648354       0.21644805       2.86477908      -1.89290977       2.79793839       0.00000000
H        9.96035741      10.88928230      12.74074526      -0.43345742      -0.07742829       0.33603141      -1.76688505      -2.45849222       1.91603428       0.00000000
9
Lattice="23.296006118037088 0.0 0.0 0.0 22.649327160371357 0.0 0.0 0.0 22.71683509278982" Properties=species:S:1:pos:R:3:momenta:R:3:forces:R:3:magmoms:R:1 Energy:=T 4.1390592=T energy=-37.39566035405283 dipole="-0.0051124943268743275 -0.3037444919112685 0.09851875103721999" magmom=0.0 free_energy=-37.39566035405283 pbc="T T T"
C       12.41636950      11.83477333      10.78450369      -0.51089520       0.10277328      -0.76207412      -0.56790445       0.60213403       0.92912093       0.00000000
C       11.60158998      10.81634466      11.60200706      -0.85130252      -0.70048302       0.28077155       0.91459820      -0.48801282       0.55626146       0.00000000
O       10.50630656      11.52935553      12.18898113      -0.22672962       0.52836783       0.06371277      -2.01628078       2.20666852       0.55074144       0.00000000
H       11.78032593      12.31064068       9.94655156      -0.15157450       0.17525997      -0.44639048      -0.66358549       0.49890175      -0.70174610       0.00000000
H       13.27763241      11.30009099      10.32466070       0.04452029      -0.37692322      -0.00497076       2.17943448      -1.13179902      -1.19139158       0.00000000
H       12.81570290      12.65459946      11.51144990       0.17594335       0.11318598       0.44755007       0.22658274       0.63310003       0.29812620       0.00000000
H       11.27678862       9.94290235      10.92506258       0.11216869      -0.52120943      -0.11797769      -0.37283237      -1.42748440      -1.29350221       0.00000000
H       12.24680642      10.29730180      12.45765896       0.00178346      -0.41707095       0.54087569       0.90237740      -0.28404212       0.15941551       0.00000000
H       10.00559057      10.80118427      12.77476858      -0.05117669      -0.57073990       0.48860577      -0.65500920      -0.63088684       0.62789182       0.00000000
9
Lattice="23.296006118037088 0.0 0.0 0.0 22.649327160371357 0.0 0.0 0.0 22.71683509278982" Properties=species:S:1:pos:R:3:momenta:R:3:forces:R:3:magmoms:R:1 Energy:=T 4.1390592=T energy=-37.171099793671544 dipole="-0.026524182665302175 -0.28239003183563416 0.11754110861801222" magmom=0.0 free_energy=-37.171099793671544 pbc="T T T"
C       12.41460781      11.81689410      10.79433506      -0.43143480      -0.96452630      -0.13839538       0.70026476       1.35910329      -1.75803028       0.00000000
C       11.61034856      10.85512476      11.62702637      -0.30269439       1.76128525       1.53706322      -1.84253686      -2.03803067      -2.09821587       0.00000000
O       10.50067405      11.52530800      12.19156843      -0.62266581       0.34920524       0.17892175      -1.67347964       3.93438740      -0.05810996       0.00000000
H       11.72544153      12.34884326       9.94672822      -0.36079743       0.29741347      -0.29809225       0.36018927      -0.32584774       0.38519725       0.00000000
H       13.34541946      11.27253820      10.29698998       0.32864059      -0.39543576      -0.12284041       0.09427367      -0.00856450      -0.12890028       0.00000000
H       12.79537083      12.65398621      11.51376453       0.06142155       0.14027632       0.38680529       0.39482627       0.69220529       0.29977542       0.00000000
H       11.24942609       9.92484283      10.94390205      -0.03055023      -0.47518416       0.00676157       0.24858294      -0.26307798      -0.41362196       0.00000000
H       12.22132337      10.37438003      12.40239944       0.07253322      -0.06182874       0.34712669       2.65406575      -1.70334480       2.52356010       0.00000000
H        9.93712370      10.88256813      12.75941048      -0.50090041      -0.17806274       0.41169563      -0.97952970      -1.63954608       1.16516578       0.00000000
9
Lattice="23.296006118037088 0.0 0.0 0.0 22.649327160371357 0.0 0.0 0.0 22.71683509278982" Properties=species:S:1:pos:R:3:momenta:R:3:forces:R:3:magmoms:R:1 Energy:=T 4.1390592=T energy=-37.50578014488737 dipole="-0.003609982982076294 -0.301033129847209 0.1000579891963626" magmom=0.0 free_energy=-37.50578014488737 pbc="T T T"
C       12.41422341      11.83525403      10.78148083      -0.53150343       0.13993014      -0.71975404      -0.27130426       0.91096846       0.79423826       0.00000000
C       11.59820081      10.81343136      11.60321100      -0.79956731      -0.74206852       0.30869193       1.19216426      -1.20543277       0.58071292       0.00000000
O       10.50545855      11.53114385      12.18921824      -0.34091359       0.61532359       0.10712704      -2.63352152       1.33434617       1.21717573       0.00000000
H       11.77214668      12.31977693       9.92396214      -0.17570535       0.19370860      -0.46920994      -0.31907160       0.25236339      -0.22750840       0.00000000
H       13.28240928      11.28037171      10.32299301       0.14168170      -0.42567237      -0.05817924       1.77717457      -0.85336486      -0.97536538       0.00000000
H       12.82454661      12.66087180      11.53361290       0.18182593       0.13368179       0.45072198       0.01296773       0.20153084      -0.16895969       0.00000000
H       11.28180780       9.91579913      10.91776660       0.09714655      -0.57905259      -0.17232392      -0.23889963      -0.92800613      -0.91958632       0.00000000
H       12.24797300      10.27664071      12.48420316       0.03781894      -0.42265728       0.53633197       0.56506037       0.05655539      -0.34444506       0.00000000
H       10.00231334      10.77262087      12.79932652      -0.07034347      -0.58096121       0.50316341      -0.12550072       0.21465469      -0.03507518       0.00000000
9
Lattice="23.296006118037088 0.0 0.0 0.0 22.649327160371357 0.0 0.0 0.0 22.71683509278982" Properties=species:S:1:pos:R:3:momenta:R:3:forces:R:3:magmoms:R:1 Energy:=T 4.1390592=T energy=-37.23737435480713 dipole="-0.031083990396755114 -0.2739295733104088 0.12455874370685675" magmom=0.0 free_energy=-37.23737435480713 pbc="T T T"
C       12.41291397      11.81308659      10.79359263      -0.38740510      -0.88489449      -0.23058445       1.09271380       1.88366507      -1.99609508       0.00000000
C       11.60892581      10.86212208      11.63310080      -0.38535044       1.63345223       1.44060255      -1.52338463      -3.16758886      -1.82985750       0.00000000
O       10.49863645      11.52667657      12.19211330      -0.72738338       0.52654177       0.19506461      -2.59083186       3.28711464       0.71547997       0.00000000
H       11.70829312      12.36294446       9.93266496      -0.33494086       0.27516838      -0.26987459       0.69274227      -0.58001760       0.76388281       0.00000000
H       13.36154484      11.25326087      10.29085051       0.32130471      -0.38852610      -0.12309771      -0.39300555       0.28993980       0.11842240       0.00000000
H       12.79883592      12.66164921      11.53296979       0.07667501       0.16449219       0.39118180       0.22632538       0.29391405      -0.12155513       0.00000000
H       11.24823499       9.90137533      10.94373660      -0.01467108      -0.47705004      -0.00565885       0.39804814       0.18709546      -0.09216275       0.00000000
H       12.22803303      10.36932946      12.42233215       0.19252153      -0.13662573       0.45751238       2.23210101      -1.34254020       1.97156854       0.00000000
H        9.91154598      10.87193055      12.78086392      -0.52970323      -0.23847568       0.45010250      -0.19337957      -0.82059112       0.39883950       0.00000000
9
Lattice="23.296006118037088 0.0 0.0 0.0 22.649327160371357 0.0 0.0 0.0 22.71683509278982" Properties=species:S:1:pos:R:3:momenta:R:3:forces:R:3:magmoms:R:1 Energy:=T 4.1390592=T energy=-37.52129136821443 dipole="-0.0023402255866384358 -0.297676414473653 0.10112614603129254" magmom=0.0 free_energy=-37.52129136821443 pbc="T T T"
C       12.41202283      11.83591769      10.77861748      -0.53484886       0.18855646      -0.68619180       0.13507128       1.06919365       0.57248385       0.00000000
C       11.59505105      10.81027597      11.60453157      -0.73616700      -0.81797057       0.33631695       1.38962450      -1.88545235       0.54423383       0.00000000
O       10.50421350      11.53313335      12.18963885      -0.48106844       0.66247322       0.17993220      -3.07386724       0.58568182       1.74759742       0.00000000
H       11.76320390      12.32951707       9.90082829      -0.18319373       0.20025026      -0.46943592       0.01412985       0.01402648       0.21830594       0.00000000
H       13.29143892      11.25861034      10.31899128       0.21618777      -0.45835136      -0.09935882       1.25686338      -0.47738957      -0.70155024       0.00000000
H       12.83342136      12.66762640      11.55537157       0.17773410       0.13452565       0.43236467      -0.17959517      -0.16716731      -0.57858716       0.00000000
H       11.28625530       9.88647520      10.90827006       0.08828246      -0.61155747      -0.20781575      -0.12206402      -0.39565816      -0.52571270       0.00000000
H       12.25049177      10.25611496      12.50992310       0.05849530      -0.41248189       0.50899473       0.27692289       0.35780688      -0.76878253       0.00000000
H        9.99873579      10.74457113      12.82380053      -0.06665837      -0.55343861       0.48864916       0.27556530       0.90612095      -0.55597448       0.00000000
9
Lattice="23.296006118037088 0.0 0.0 0.0 22.649327160371357 0.0 0.0 0.0 22.71683509278982" Properties=species:S:1:pos:R:3:momenta:R:3:forces:R:3:magmoms:R:1 Energy:=T 4.1390592=T energy=-37.44774879313969 dipole="-0.0012133305866487433 -0.29410907665301494 0.1021028070573519" magmom=0.0 free_energy=-37.44774879313969 pbc="T T T"
C       12.40984937      11.83679606      10.77586910      -0.51742099       0.24167516      -0.66427351       0.57462694       1.09390727       0.32007346       0.00000000
C       11.59218037      10.80674193      11.60596143      -0.66452549      -0.92475163       0.36124473       1.52776255      -2.46288814       0.47087580       0.00000000
O       10.50250500      11.53521115      12.19032294      -0.63865603       0.67615650       0.27522095      -3.34341818      -0.02847062       2.13275330       0.00000000
H       11.75429493      12.33929079       9.87821684      -0.17562088       0.19569327      -0.44886714       0.29425169      -0.19959630       0.61929644       0.00000000
H       13.30347621      11.23570658      10.31331075       0.26408463      -0.47212817      -0.12708285       0.69359379      -0.08363026      -0.42742852       0.00000000
H       12.84186633      12.67398097      11.57574570       0.16501723       0.11899192       0.39531885      -0.33826186      -0.46539762      -0.92999339       0.00000000
H       11.29041069       9.85620447      10.89751550       0.08467657      -0.61875050      -0.22426329      -0.02477512       0.10274348      -0.14406429       0.00000000
H       12.25367322      10.23644544      12.53380336       0.06636415      -0.38892628       0.46225578       0.04351256       0.60142524      -1.13452214       0.00000000
H        9.99581766      10.71868973      12.84694410      -0.04645119      -0.49581145       0.45095232       0.54731213       1.44057385      -0.97911697       0.00000000
9
Lattice="23.296006118037088 0.0 0.0 0.0 22.649327160371357 0.0 0.0 0.0 22.71683509278982" Properties=species:S:1:pos:R:3:momenta:R:3:forces:R:3:magmoms:R:1 Energy:=T 4.1390592=T energy=-37.22406421108184 dipole="-0.03606331256186129 -0.26535122530693717 0.13068348438199862" magmom=0.0 free_energy=-37.22406421108184 pbc="T T T"
C       12.41143958      11.80965736      10.79244932      -0.32508561      -0.78137527      -0.33160712       1.44506196       2.33184687      -2.11775211       0.00000000
C       11.60719713      10.86848326      11.63880774      -0.44874296       1.45062503       1.36160573      -1.05808703      -4.27750448      -1.38705287       0.00000000
O       10.49620823      11.52854074      12.19276605      -0.87416506       0.67396539       0.24668823      -3.38641475       2.71627340       1.38673829       0.00000000
H       11.69280243      12.37565769       9.92042966      -0.29423527       0.24166793      -0.22513104       0.96487198      -0.78418835       1.05816495       0.00000000
H       13.37672976      11.23467736      10.28499443       0.29232910      -0.36856885      -0.11229483      -0.78693989       0.52275960       0.32149260       0.00000000
H       12.80284260      12.67001554      11.55188417       0.08401757       0.17023907       0.37586982       0.07267843      -0.05988941      -0.50197943       0.00000000
H       11.24799643       9.87835555      10.94335061       0.00747990      -0.45834444      -0.00359781       0.50398472       0.57463426       0.17609224       0.00000000
H       12.24008409      10.36106621      12.44698281       0.28868556      -0.19129623       0.53718426       1.68389301      -0.88375290       1.27283177       0.00000000
H        9.88550551      10.85932930      12.80327178      -0.52162308      -0.26143966       0.45297319       0.52241970      -0.11454826      -0.28193921       0.00000000
9
Lattice="23.296006118037088 0.0 0.0 0.0 22.649327160371357 0.0 0.0 0.0 22.71683509278982" Properties=species:S:1:pos:R:3:momenta:R:3:forces:R:3:magmoms:R:1 Energy:=T 4.1390592=T energy=-36.939903163174506 dipole="-0.009489151781227508 -0.30187672327680015 0.08984339264722657" magmom=0.0 free_energy=-36.939903163174506 pbc="T T T"
C       12.42030057      11.83643075      10.79368306      -0.44615609       0.64367608      -0.24103957      -0.54341778      -1.08415794      -0.20296931       0.00000000
C       11.61272468      10.82614127      11.59989421       0.03725933       0.29249198       0.23210952      -0.23867932       0.49306273       0.18051482       0.00000000
O       10.50853607      11.52911851      12.19131754       0.34330480       0.94719683       0.94181856       0.04553118       4.40899243      -1.33967953       0.00000000
H       11.78795910      12.29418372       9.98692144      -0.11654850       0.05402391      -0.30647398      -1.25761672       0.91064384      -1.54951425       0.00000000
H       13.29955476      11.33714404      10.32074866       0.12094043      -0.12577158       0.15751773       1.95907386      -1.11370083      -1.13269391       0.00000000
H       12.80065585      12.63925803      11.44346828       0.14765019      -0.14991696      -0.16610986       0.99255863       2.31060355       1.84753208       0.00000000
H       11.26301543       9.99483551      10.91285809       0.14477434      -0.15345905      -0.30080506      -0.42822442      -1.93281128      -1.59099184       0.00000000
H       12.26930393      10.35350717      12.39984444       0.23532061       0.00899766       0.32430141       1.63756764      -1.11148868       1.34794991       0.00000000
H       10.00015367      10.87263382      12.72849322      -0.05175719       0.00291503       0.29702085      -2.23609084      -2.91558784       2.35172512       0.00000000
9
Lattice="23.296006118037088 0.0 0.0 0.0 22.649327160371357 0.0 0.0 0.0 22.71683509278982" Properties=species:S:1:pos:R:3:momenta:R:3:forces:R:3:magmoms:R:1 Energy:=T 4.1390592=T energy=-37.117751806158644 dipole="-0.007845820840062802 -0.2986599076929947 0.09134931953424787" magmom=0.0 free_energy=-37.117751806158644 pbc="T T T"
C       12.41842165      11.83895390      10.79267705      -0.47405693       0.58799235      -0.26609340      -0.59276062      -1.18339608      -0.81727364       0.00000000
C       11.61285307      10.82738679      11.60086144       0.02998201       0.30135186       0.24466619      -0.05766795      -0.13227063       0.33081849       0.00000000
O       10.50959338      11.53235857      12.19410773       0.33521895       1.14899270       0.88560233      -0.37480313       3.80854372      -0.94955874       0.00000000
H       11.78077569      12.29790554       9.97013492      -0.17018213       0.09343832      -0.37289676      -0.92645303       0.69439055      -1.15535539       0.00000000
H       13.30779144      11.32968345      10.32706825       0.20982498      -0.17688896       0.10479112       1.66048478      -0.96790230      -1.01444029       0.00000000
H       12.80903750      12.63471815      11.43758536       0.19758748      -0.03203430      -0.07271867       1.04098904       2.48981665       1.95554603       0.00000000
H       11.26955700       9.98504582      10.89629815       0.12729873      -0.23853367      -0.36911414      -0.28341767      -1.53159902      -1.19069225       0.00000000
H       12.28272895      10.35261568      12.41725842       0.30625750      -0.03919664       0.37858433       1.25112601      -0.85108039       0.86256058       0.00000000
H        9.99495640      10.86928736      12.74577899      -0.15025739      -0.12662430       0.40158922      -1.77503663      -2.35951553       1.90651062       0.00000000
9
Lattice="23.296006118037088 0.0 0.0 0.0 22.649327160371357 0.0 0.0 0.0 22.71683509278982" Properties=species:S:1:pos:R:3:momenta:R:3:forces:R:3:magmoms:R:1 Energy:=T 4.1390592=T energy=-37.32185212035627 dipole="-0.006374846404701834 -0.29350593183690926 0.09266810650945914" magmom=0.0 free_energy=-37.32185212035627 pbc="T T T"
C       12.41642370      11.84123940      10.79150692      -0.49925204       0.53296424      -0.31930667      -0.43323539      -1.05746005      -1.34967831       0.00000000
C       11.61296987      10.82860575      11.60189511       0.03206372       0.27707573       0.26385926       0.14243955      -0.85630223       0.45076214       0.00000000
O       10.51059417      11.53617283      12.19675475       0.30210907       1.31647712       0.85386407      -0.97349822       3.01176052      -0.34288751       0.00000000
H       11.77137529      12.30328904       9.95058364      -0.20632612       0.12142733      -0.41860204      -0.54540350       0.44537864      -0.70585630       0.00000000
H       13.32000165      11.31990667      10.33096028       0.28082062      -0.21882728       0.05952282       1.23060117      -0.73991118      -0.82897664       0.00000000
H       12.81991023      12.63613637      11.43638204       0.24689461       0.08811184       0.02077628       0.96689711       2.40277720       1.85175749       0.00000000
H       11.27542036       9.97159103      10.87688889       0.11729401      -0.30224839      -0.41651936      -0.12399485      -1.06299329      -0.73974387       0.00000000
H       12.29914791      10.34968756      12.43673649       0.35724204      -0.07436817       0.40808906       0.82506764      -0.58117554       0.33893186       0.00000000
H        9.98551148      10.86029461      12.76762703      -0.22171069      -0.22359141       0.47944663      -1.13468601      -1.58918165       1.26400031       0.00000000
9
Lattice="23.296006118037088 0.0 0.0 0.0 22.649327160371357 0.0 0.0 0.0 22.71683509278982" Properties=species:S:1:pos:R:3:momenta:R:3:forces:R:3:magmoms:R:1 Energy:=T 4.1390592=T energy=-37.48701745939187 dipole="-0.00502285860530559 -0.28701746223846974 0.09394454588041985" magmom=0.0 free_energy=-37.48701745939187 pbc="T T T"
C       12.41433873      11.84331253      10.79006574      -0.51208831       0.48888932      -0.39486351      -0.08948344      -0.73735950      -1.72714877       0.00000000
C       11.61311529      10.82965274      11.60301930       0.04388704       0.21747102       0.28802775       0.33902996      -1.57092209       0.53342749       0.00000000
O       10.51144820      11.54044117      12.19935008       0.23897400       1.44401809       0.85332138      -1.59748962       2.18196581       0.32078818       0.00000000
H       11.76066975      12.30973832       9.92934325      -0.22414673       0.13741904      -0.44182776      -0.18028762       0.20583624      -0.23994196       0.00000000
H       13.33515667      11.30835930      10.33286859       0.32922361      -0.24857333       0.02405401       0.74046677      -0.47140797      -0.61538484       0.00000000
H       12.83309673      12.64330441      11.43960995       0.28987941       0.19818449       0.10444029       0.78353073       2.07960360       1.55521018       0.00000000
H       11.28098699       9.95559251      10.85570944       0.11515901      -0.34242507      -0.44142677       0.03705361      -0.57308261      -0.27453656       0.00000000