9
Lattice="23.296006118037088 0.0 0.0 0.0 22.649327160371357 0.0 0.0 0.0 22.71683509278982" Properties=species:S:1:pos:R:3:momenta:R:3:forces:R:3:magmoms:R:1 Energy:=T 4.1390592=T energy=-37.03828131334374 dipole="-0.02025638442194626 -0.3019323758336119 0.08139124112446577" magmom=0.0 free_energy=-37.03828131334374 pbc="T T T"
C       12.42049323      11.83502046      10.79254554      -0.38061179       0.30608523      -0.50579489       0.20703406      -0.78673694       0.34399529       0.00000000
C       11.61390504      10.82449766      11.59826942       0.32361851      -0.11140915      -0.16459685      -0.33260365       0.41385107       0.20677920       0.00000000
O       10.51020736      11.53083684      12.18925860       0.88131815       1.49866113       0.28243062      -0.21575695       4.07140923      -0.87856910       0.00000000
H       11.78653038      12.28672706       9.99478521      -0.15146817      -0.09544194      -0.15087183      -1.48552916       1.05617643      -1.78541688       0.00000000
H       13.29988909      11.33510352      10.29754789       0.12126857      -0.16296926      -0.31343821       1.69301335      -0.92304886      -0.92035066       0.00000000
H       12.79686818      12.65907975      11.45291125       0.06400441       0.24153339       0.01551483       0.75197459       1.68476108       1.35146525       0.00000000
H       11.25278416       9.99878461      10.91319033      -0.06604822      -0.07286367      -0.29623356      -0.46230504      -1.95136467      -1.68250895       0.00000000
H       12.25533004      10.32307539      12.39141717      -0.05031066      -0.61509081       0.15230911       1.68510639      -1.09152041       1.38738035       0.00000000
H        9.97457088      10.86976034      12.71624178      -0.56884193      -0.04589935       0.03492651      -1.91137466      -2.50182484       1.91815434       0.00000000
9
Lattice="23.296006118037088 0.0 0.0 0.0 22.649327160371357 0.0 0.0 0.0 22.71683509278982" Properties=species:S:1:pos:R:3:momenta:R:3:forces:R:3:magmoms:R:1 Energy:=T 4.1390592=T energy=-37.27389619386815 dipole="-0.028879172685994797 -0.2987798201107551 0.0744598557384195" magmom=0.0 free_energy=-37.27389619386815 pbc="T T T"
C       12.41895768      11.83619306      10.79051186      -0.35710878       0.27177681      -0.49306476       0.75005622      -0.61037133       0.17440107       0.00000000
C       11.61519494      10.82408365      11.59761714       0.30916288      -0.10917053      -0.15008286      -0.25605862      -0.32268994       0.38426004       0.00000000
O       10.51289655      11.53574432      12.19005937       0.85564740       1.67891256       0.25618117      -0.82960775       3.26879326      -0.19036188       0.00000000
H       11.77737286      12.28334049       9.98529794      -0.22078408      -0.04612814      -0.23297157      -1.33715478       0.95198134      -1.55785075       0.00000000
H       13.30782342      11.32605863      10.28117483       0.19217838      -0.20090623      -0.35100191       1.19457774      -0.62182110      -0.60931937       0.00000000
H       12.80088644      12.67286395      11.45528421       0.09715947       0.31555175       0.07417662       0.59816645       1.32941630       1.03736140       0.00000000
H       11.24901290       9.99289963      10.89674363      -0.08560141      -0.15917925      -0.37128809      -0.33394076      -1.56358047      -1.37386314       0.00000000
H       12.25489494      10.29179990      12.40049822       0.02375845      -0.66092201       0.20910931       1.33113732      -0.77481859       0.92563861       0.00000000
H        9.94456785      10.86453053      12.72023859      -0.64517197      -0.14879708       0.11106837      -1.19693900      -1.68837878       1.18249646       0.00000000
9
Lattice="23.296006118037088 0.0 0.0 0.0 22.649327160371357 0.0 0.0 0.0 22.71683509278982" Properties=species:S:1:pos:R:3:momenta:R:3:forces:R:3:magmoms:R:1 Energy:=T 4.1390592=T energy=-37.47486007809515 dipole="-0.037046124839375 -0.29390539371926977 0.06743492824461111" magmom=0.0 free_energy=-37.47486007809515 pbc="T T T"
C       12.41757276      11.83724307      10.78851321      -0.30810900       0.24954540      -0.49131653       1.24531399      -0.29493650      -0.10320938       0.00000000
C       11.61643340      10.82360485      11.59704203       0.29844350      -0.14610631      -0.12781207      -0.18045649      -1.18140961       0.52265141       0.00000000
O       10.51546066      11.54114464      12.19083144       0.79811042       1.81908155       0.26396534      -1.51341456       2.43917170       0.50734904       0.00000000
H       11.76501555      12.28223200       9.97208274      -0.27989905      -0.00377955      -0.30079709      -1.07012639       0.77253897      -1.20414158       0.00000000
H       13.31861637      11.31552573      10.26334368       0.23783348      -0.22355237      -0.37299138       0.66459021      -0.30037581      -0.28613632       0.00000000
H       12.80633611      12.68982944      11.46013956       0.12184483       0.36964723       0.11584978       0.40707128       0.87346084       0.65965377       0.00000000
H       11.24444252       9.98327301      10.87700929      -0.09793906      -0.22439108      -0.42908206      -0.16847304      -1.09197705      -0.97962436       0.00000000
H       12.25764524      10.25867028      12.41179432       0.07952080      -0.68971200       0.24250289       0.93961861      -0.39756824       0.43421536       0.00000000
H        9.91170056      10.85526045      12.72706510      -0.68454204      -0.21107757       0.15115651      -0.40629000      -0.84780868       0.44997368       0.00000000
9
Lattice="23.296006118037088 0.0 0.0 0.0 22.649327160371357 0.0 0.0 0.0 22.71683509278982" Properties=species:S:1:pos:R:3:momenta:R:3:forces:R:3:magmoms:R:1 Energy:=T 4.1390592=T energy=-37.5864266903881 dipole="-0.044680888792552075 -0.2879785275680804 0.06057512219566529" magmom=0.0 free_energy=-37.5864266903881 pbc="T T T"
C       12.41643794      11.83823386      10.78649384      -0.23709718       0.24461148      -0.50473464       1.64643089       0.09401734      -0.44320326       0.00000000
C       11.61763563      10.82288879      11.59657189       0.29087817      -0.22512949      -0.10002078      -0.12761889      -2.03657409       0.60906626       0.00000000
O       10.51779660      11.54691270      12.19168000       0.70862578       1.92047423       0.30340304      -2.13058086       1.68974334       1.09863400       0.00000000
H       11.75009744      12.28297218       9.95598605      -0.32391178       0.02873576      -0.34934132      -0.72216114       0.55155018      -0.77267760       0.00000000
H       13.33099967      11.30427404      10.24482780       0.25830865      -0.23080369      -0.37951210       0.16919998       0.00508764       0.02059945       0.00000000
H       12.81275990      12.70888510      11.46657346       0.13663255       0.40086218       0.13875993       0.19511487       0.39767505       0.27329407       0.00000000
H       11.23946899       9.97103331      10.85493071      -0.10196230      -0.26615234      -0.46699432       0.00463866      -0.60862599      -0.56423959       0.00000000
H       12.26264403      10.22458928      12.42412949       0.11665898      -0.69991918       0.25196899       0.57272295      -0.01808889      -0.04873670       0.00000000
H        9.87786103      10.84396158      12.73496839      -0.68655954      -0.23478638       0.15777608       0.32413348      -0.11766221      -0.18041146       0.00000000
9
Lattice="23.296006118037088 0.0 0.0 0.0 22.649327160371357 0.0 0.0 0.0 22.71683509278982" Properties=species:S:1:pos:R:3:momenta:R:3:forces:R:3:magmoms:R:1 Energy:=T 4.1390592=T energy=-37.593478239843236 dipole="-0.05173643733968126 -0.28171683168346845 0.05411368455644024" magmom=0.0 free_energy=-37.593478239843236 pbc="T T T"
C       12.41563376      11.83924353      10.78438545      -0.14908543       0.25900577      -0.53526554       1.93758565       0.49214743      -0.80007698       0.00000000
C       11.61881223      10.82176372      11.59622406       0.28515169      -0.34372505      -0.06926757      -0.10557488      -2.79287702       0.64326641       0.00000000
O       10.51981132      11.55293552      12.19269420       0.59221592       1.98820578       0.36814754      -2.60986432       1.06842252       1.53789303       0.00000000
H       11.73345120      12.28503222       9.93804035      -0.35034768       0.05021222      -0.37618521      -0.35436209       0.32301458      -0.32045984       0.00000000
H       13.34378786      11.29303452      10.22636122       0.25590767      -0.22384264      -0.37160046      -0.26697286       0.27838035       0.30157856       0.00000000
H       12.81965059      12.72889240      11.47366135       0.14145479       0.40979753       0.14332886       0.00125620      -0.03380943      -0.08723811       0.00000000
H       11.23450657       9.95733717      10.83150192      -0.09778488      -0.28494579      -0.48481058       0.16547429      -0.15668141      -0.16127466       0.00000000
H       12.26901335      10.19046500      12.43634803       0.13648212      -0.69213379       0.23928872       0.23451546       0.33512563      -0.46762941       0.00000000
H        9.84479714      10.83238114      12.74243996      -0.65593637      -0.22604175       0.13730365       0.92290360       0.47376139      -0.65326732       0.00000000
9
Lattice="23.296006118037088 0.0 0.0 0.0 22.649327160371357 0.0 0.0 0.0 22.71683509278982" Properties=species:S:1:pos:R:3:momenta:R:3:forces:R:3:magmoms:R:1 Energy:=T 4.1390592=T energy=-37.511122371511206 dipole="-0.05816211629477743 -0.2757718749067828 0.04820588959642656" magmom=0.0 free_energy=-37.511122371511206 pbc="T T T"
C       12.41521871      11.84035203      10.78211639      -0.04942217       0.29200576      -0.58277427       2.12090379       0.85167858      -1.13457425       0.00000000
C       11.61996762      10.82007777      11.59600541       0.27980353      -0.49564969      -0.03793516      -0.11221323      -3.39380193       0.63265263       0.00000000
O       10.52143255      11.55911942      12.19394027       0.45617294       2.02782376       0.45065959      -2.93008093       0.54490140       1.82216431       0.00000000
H       11.71595698      12.28786523       9.91932779      -0.35893925       0.06075250      -0.38100355       0.00449589       0.10620724       0.12424718       0.00000000
H       13.35593720      11.28246116      10.20861631       0.23379936      -0.20450882      -0.35119954      -0.63332200       0.50893162       0.52918837       0.00000000
H       12.82654429      12.74881879      11.48054048       0.13740411       0.39840560       0.13142883      -0.16620803      -0.43009301      -0.39735500       0.00000000
H       11.22994012       9.94326609      10.80768720      -0.08621058      -0.28276025      -0.48366822       0.30585430       0.24568122       0.20779406       0.00000000
H       12.27594386      10.15714267      12.44744754       0.14121431      -0.66772456       0.20818864      -0.04181119       0.65886770      -0.79882881       0.00000000
H        9.81394176      10.82193440      12.74834827      -0.59924530      -0.19212959       0.09690951       1.38567175       0.90721020      -0.99166375       0.00000000
9
Lattice="23.296006118037088 0.0 0.0 0.0 22.649327160371357 0.0 0.0 0.0 22.71683509278982" Properties=species:S:1:pos:R:3:momenta:R:3:forces:R:3:magmoms:R:1 Energy:=T 4.1390592=T energy=-37.37016228693786 dipole="-0.06388035931289747 -0.27067017622147754 0.04289733882534799" magmom=0.0 free_energy=-37.37016228693786 pbc="T T T"
C       12.41522959      11.84163157      10.77961948       0.05687187       0.34092971      -0.64544371       2.20760465       1.14060366      -1.41745248       0.00000000
C       11.62110049      10.81771026      11.59591382       0.27362698      -0.67271110      -0.00799893      -0.13930828      -3.81649666       0.58641152       0.00000000
O       10.52261202      11.56538548      12.19546106       0.30800141       2.04380737       0.54391711      -3.10376331       0.10598361       1.97547076       0.00000000
H       11.69847351      12.29095239       9.90091256      -0.35057358       0.06133531      -0.36549423       0.33617102      -0.08247417       0.50732403       0.00000000
H       13.36657100      11.27310567      10.19213775       0.19576406      -0.17475329      -0.32026596      -0.91555244       0.70277375       0.73048952       0.00000000
H       12.83304026      12.76771598      11.48646875       0.12588492       0.36938277       0.10559064      -0.30287670      -0.75177518      -0.65482858       0.00000000
H       11.22610557       9.92978292      10.78436972      -0.06879027      -0.26292018      -0.46541300       0.40353618       0.56224661       0.53559520       0.00000000
H       12.28277431      10.12539700      12.45663547       0.13384310      -0.62899018       0.16265284      -0.25835909       0.91847451      -1.05548079       0.00000000
H        9.78640227      10.81365861      12.75188354      -0.52278998      -0.14008816       0.04281004       1.72774347       1.21202219      -1.21137619       0.00000000
9
Lattice="23.296006118037088 0.0 0.0 0.0 22.649327160371357 0.0 0.0 0.0 22.71683509278982" Properties=species:S:1:pos:R:3:momenta:R:3:forces:R:3:magmoms:R:1 Energy:=T 4.1390592=T energy=-37.207724780673324 dipole="-0.0687879204275105 -0.2667847007665458 0.03815248410642491" magmom=0.0 free_energy=-37.207724780673324 pbc="T T T"
C       12.41568381      11.84314018      10.77683790       0.16537869       0.40189285      -0.72027191       2.21101235       1.34193898      -1.62970306       0.00000000
C       11.62220537      10.81457629      11.59593999       0.26587583      -0.86623090       0.01898076      -0.17633435      -4.06402100       0.51225609       0.00000000
O       10.52332355      11.57166752      12.19727968       0.15429621       2.04041230       0.64233195      -3.15542353      -0.24423746       2.03218055       0.00000000
H       11.68179450      12.29384219       9.88371134      -0.32724488       0.05352657      -0.33226513       0.61382111      -0.23551357       0.84583213       0.00000000
H       13.37501389      11.26543191      10.17740724       0.14575386      -0.13662687      -0.28077206      -1.12096403       0.84981146       0.87778203       0.00000000
H       12.83881145      12.78481417      11.49083001       0.10831702       0.32598980       0.06863264      -0.41252359      -1.01527442      -0.85017578       0.00000000
H       11.22323669       9.91764521      10.76233392      -0.04720839      -0.22908778      -0.43281981       0.47532148       0.81547717       0.79166563       0.00000000
H       12.28898651      10.09584923      12.46329764       0.11685694      -0.57863626       0.10643946      -0.43335170       1.13203911      -1.23364194       0.00000000
H        9.76299725      10.80828318      12.75252000      -0.43227523      -0.07559595      -0.01965588       1.95820005       1.41423098      -1.33236242       0.00000000
9
Lattice="23.296006118037088 0.0 0.0 0.0 22.649327160371357 0.0 0.0 0.0 22.71683509278982" Properties=species:S:1:pos:R:3:momenta:R:3:forces:R:3:magmoms:R:1 Energy:=T 4.1390592=T energy=-37.058318443043035 dipole="-0.07278710324496537 -0.26435133515230747 0.03387052236741981" magmom=0.0 free_energy=-37.058318443043035 pbc="T T T"
C       12.41658207      11.84491829      10.77372903       0.27227648       0.47043350      -0.80353281       2.14208209       1.44917496      -1.76084934       0.00000000
C       11.62327484      10.81062615      11.59606904       0.25622994      -1.06797023       0.04176406      -0.21646558      -4.15121271       0.41552579       0.00000000
O       10.52355933      11.57791273      12.19940470       0.00048585       2.02151848       0.74166342      -3.10804523      -0.52515717       2.01279758       0.00000000
H       11.66658436      12.29616842       9.86853419      -0.29176780       0.03916102      -0.28428968       0.83087742      -0.34948054       1.10782499       0.00000000
H       13.38077433      11.25979174      10.16477725       0.08771088      -0.09244293      -0.23548059      -1.24266354       0.94944772       0.96657812       0.00000000
H       12.84359547      12.79948283      11.49315682       0.08603342       0.27118379       0.02337679      -0.49490976      -1.21653721      -0.99273395       0.00000000
H       11.22150524       9.90745892      10.74219257      -0.02286086      -0.18430728      -0.38891324       0.51615947       1.00807541       0.99629884       0.00000000
H       12.29416171      10.06901041      12.46700771       0.09235277      -0.51886660       0.04303100      -0.56450788       1.30190219      -1.34847882       0.00000000
H        9.74427818      10.80629199      12.74996813      -0.33280431      -0.00319277      -0.08640811       2.09245702       1.53417303      -1.38592326       0.00000000
9
Lattice="23.296006118037088 0.0 0.0 0.0 22.649327160371357 0.0 0.0 0.0 22.71683509278982" Properties=species:S:1:pos:R:3:momenta:R:3:forces:R:3:magmoms:R:1 Energy:=T 4.1390592=T energy=-36.94766029879921 dipole="-0.07582670001232848 -0.2634928295049503 0.02990708388584925" magmom=0.0 free_energy=-36.94766029879921 pbc="T T T"
C       12.41791051      11.84698742      10.77026654       0.37426047       0.54200353      -0.89115339       2.01091209       1.46530119      -1.80723775       0.00000000
C       11.62430084      10.80584234      11.59628154       0.24452198      -1.27039518       0.05937455      -0.26030630      -4.09194070       0.30160881       0.00000000
O       10.52332653      11.58407877      12.20183318      -0.14899205       1.98985112       0.83839678      -2.97899748      -0.76440200       1.92638059       0.00000000
H       11.65336250      12.29765833       9.85600806      -0.24661172       0.01995090      -0.22511424       1.00796936      -0.43279455       1.30191858       0.00000000
H       13.38356108      11.25642359      10.15446027       0.02529048      -0.04427338      -0.18677626      -1.29922158       1.01211387       1.01676056       0.00000000
H       12.84719518      12.81124032      11.49310802       0.06023515       0.20810396      -0.02776795      -0.55564794      -1.35220090      -1.08998322       0.00000000
H       11.22100896       9.89968495      10.72443535       0.00309518      -0.13146970      -0.33616992       0.54082277       1.14357775       1.15151558       0.00000000
H       12.29798605      10.04528704      12.46749089       0.06230767      -0.45132373      -0.02475431      -0.65898943       1.44858035      -1.41187626       0.00000000
H        9.73056634      10.80797205      12.74409976      -0.22828440       0.07351806      -0.15447053       2.16380515       1.58964719      -1.38571638       0.00000000
9
Lattice="23.296006118037088 0.0 0.0 0.0 22.649327160371357 0.0 0.0 0.0 22.71683509278982" Properties=species:S:1:pos:R:3:momenta:R:3:forces:R:3:magmoms:R:1 Energy:=T 4.1390592=T energy=-36.893251540446066 dipole="-0.07790429774732313 -0.26426369092820745 0.02610947164039111" magmom=0.0 free_energy=-36.893251540446066 pbc="T T T"
C       12.41964280      11.84935083      10.76644111       0.46846332       0.61235781      -0.97916720       1.82521874       1.39966726      -1.77686261       0.00000000
C       11.62527456      10.80023675      11.59655461       0.23048964      -1.46650640       0.07110388      -0.31111920      -3.89410458       0.17603324       0.00000000
O       10.52264459      11.59012956      12.20455209      -0.29022794       1.94729231       0.92955388      -2.77241346      -0.96867884       1.78572088       0.00000000
H       11.64255270      12.29811258       9.84659740      -0.19405020      -0.00250855      -0.15803393       1.13244221      -0.48179956       1.42972742       0.00000000
H       13.38323882      11.25547742      10.14657639      -0.03857741       0.00610587      -0.13638208      -1.30160783       1.03943135       1.03539269       0.00000000
H       12.84946523      12.81976201      11.49045090       0.03234873       0.14000671      -0.08249959      -0.57994370      -1.42085698      -1.13879990       0.00000000
H       11.22180686       9.89464755      10.70943370       0.02962753      -0.07319101      -0.27670001       0.53962802       1.22964814       1.27021940       0.00000000
H       12.30023343      10.02503011      12.46459547       0.02849614      -0.37826301      -0.09464134      -0.71788440       1.52660009      -1.43406466       0.00000000
H        9.72203247      10.81345613      12.73491538      -0.12226644       0.15151331      -0.22131848       2.15346059       1.58647718      -1.33646731       0.00000000
9
Lattice="23.296006118037088 0.0 0.0 0.0 22.649327160371357 0.0 0.0 0.0 22.71683509278982" Properties=species:S:1:pos:R:3:momenta:R:3:forces:R:3:magmoms:R:1 Energy:=T 4.1390592=T energy=-36.90281494388781 dipole="-0.07909266289884263 -0.2666721768204694 0.02232070911263814" magmom=0.0 free_energy=-36.90281494388781 pbc="T T T"
C       12.42174164      11.85199534      10.76225883       0.55230078       0.67777248      -1.06405680       1.58881195       1.26415041      -1.68001356       0.00000000
C       11.62618580      10.79384913      11.59686304       0.21370817      -1.64998860       0.07645460      -0.37225612      -3.57766205       0.04185898       0.00000000
O       10.52154466      11.59603430      12.20754024      -0.41943912       1.89572652       1.01263560      -2.48932698      -1.13118439       1.59753499       0.00000000
H       11.63445282      12.29741388       9.84060807      -0.13670899      -0.02684124      -0.08605027       1.20260759      -0.50907682       1.50159263       0.00000000
H       13.37980182      11.25701859      10.14117020      -0.10115197       0.05691338      -0.08629979      -1.24655479       1.02955302       1.00405949       0.00000000
H       12.85034748      12.82488361      11.48506865       0.00387208       0.06987464      -0.13849778      -0.57968274      -1.43506271      -1.14155970       0.00000000
H       11.22389608       9.89255268      10.69747167       0.05564338      -0.01195616      -0.21242972       0.51979034       1.26395892       1.34699705       0.00000000
H       12.30076292      10.00842631      12.45826834      -0.00739620      -0.30216804      -0.16459492      -0.74372400       1.57214062      -1.41458658       0.00000000
H        9.71865180      10.82273663      12.72253285      -0.01832317       0.22785560      -0.28472005       2.07931957       1.52233535      -1.24537279       0.00000000
9
Lattice="23.296006118037088 0.0 0.0 0.0 22.649327160371357 0.0 0.0 0.0 22.71683509278982" Properties=species:S:1:pos:R:3:momenta:R:3:forces:R:3:magmoms:R:1 Energy:=T 4.1390592=T energy=-36.97371342986604 dipole="-0.07953982650354931 -0.2706930710971688 0.01839794725596388" magmom=0.0 free_energy=-36.97371342986604 pbc="T T T"
C       12.42415956      11.85489371      10.75773916       0.62326993       0.73518787      -1.14284475       1.30119528       1.07392047      -1.52839106       0.00000000
C       11.62702228      10.78674301      11.59717987       0.19401441      -1.81560983       0.07501858      -0.42971358      -3.16676930      -0.10033656       0.00000000
O       10.52006941      11.60176850      12.21076924      -0.53270809       1.83743508       1.08542344      -2.12321484      -1.24256095       1.36653305       0.00000000
H       11.62923077      12.29549697       9.83821203      -0.07695433      -0.05186743      -0.01187431       1.23072307      -0.51004043       1.51900256       0.00000000
H       13.37338182      11.26102348      10.13816671      -0.15947793       0.10630677      -0.03867252      -1.12859643       0.98184566       0.93541926       0.00000000
H       12.84984255      12.82657111      11.47695466      -0.02405123       0.00031939      -0.19348520      -0.55741103      -1.39736771      -1.09763939       0.00000000
H       11.22722916       9.89348245      10.68873298       0.08021327       0.05010923      -0.14537022       0.48074496       1.26346925       1.38380130       0.00000000
H       12.29951269       9.99558462      12.44855613      -0.04378219      -0.22465484      -0.23243247      -0.73798729       1.58435403      -1.34789602       0.00000000
H        9.72024692      10.83566006      12.70717016       0.08014355       0.29944285      -0.34243745       1.93044444       1.39284203      -1.10499647       0.00000000
9
Lattice="23.296006118037088 0.0 0.0 0.0 22.649327160371357 0.0 0.0 0.0 22.71683509278982" Properties=species:S:1:pos:R:3:momenta:R:3:forces:R:3:magmoms:R:1 Energy:=T 4.1390592=T energy=-37.09401620573721 dipole="-0.07945679847862584 -0.27626846184712445 0.014218759810190662" magmom=0.0 free_energy=-37.09401620573721 pbc="T T T"
C       12.42683879      11.85800776      10.75291255       0.67889851       0.78194532      -1.21282249       0.96411314       0.83013759      -1.32124434       0.00000000
C       11.62777247      10.77900092      11.59747655       0.17152835      -1.95866427       0.06617734      -0.48596431      -2.65869672      -0.25969654       0.00000000
O       10.51827406      11.60731536      12.21420427      -0.62568395       1.77572569       1.14576249      -1.66295018      -1.27037003       1.09059499       0.00000000
H       11.62695382      12.29235954       9.83945095      -0.01696728      -0.07629976       0.06183293       1.21207095      -0.48489322       1.48250533       0.00000000
H       13.36426111      11.26737791      10.13740166      -0.21058131       0.15235771       0.00455238      -0.95243638       0.89344167       0.82478612       0.00000000
H       12.84800375      12.82491473      11.46621403      -0.05026782      -0.06592349      -0.24529720      -0.51018148      -1.30017654      -1.01225015       0.00000000
H       11.23171265       9.89743569      10.68330572       0.10238330       0.11109597      -0.07756091       0.42206378       1.22003406       1.37753105       0.00000000
H       12.29649646       9.98653428      12.43561841      -0.07898833      -0.14747462      -0.29588472      -0.69567808       1.55858048      -1.23600794       0.00000000
H        9.72646158      10.85191654      12.68916322       0.16899442       0.36286177      -0.39231423       1.68774299       1.18970502      -0.92608693       0.00000000
9
Lattice="23.296006118037088 0.0 0.0 0.0 22.649327160371357 0.0 0.0 0.0 22.71683509278982" Properties=species:S:1:pos:R:3:momenta:R:3:forces:R:3:magmoms:R:1 Energy:=T 4.1390592=T energy=-37.24205459792407 dipole="-0.07910556008879552 -0.28328819797929417 0.009669000293105558" magmom=0.0 free_energy=-37.24205459792407 pbc="T T T"
C       12.42971165      11.86128853      10.74782060       0.71699028       0.81516766      -1.27127356       0.58706085       0.52274314      -1.05900106       0.00000000
C       11.62842506      10.77072489      11.59772107       0.14601631      -2.07371854       0.04935151      -0.55293739      -2.02654611      -0.42548530       0.00000000
O       10.51622798      11.61267069      12.21780372      -0.69339585       1.71507812       1.19121082      -1.09441550      -1.19932165       0.76015303       0.00000000
H       11.62757735      12.28806176       9.84423749       0.04088893      -0.09888586       0.13235308       1.14395076      -0.43485844       1.38921778       0.00000000
H       13.35286123      11.27587034      10.13861033      -0.25138032       0.19303563       0.04127281      -0.70898207       0.76304559       0.67054376       0.00000000
H       12.84494409      12.82014704      11.45305109      -0.07347765      -0.12590450      -0.29174917      -0.43496981      -1.14237154      -0.87936775       0.00000000
H       11.23720614       9.90430846      10.68117488       0.12123208       0.16893756      -0.01138565       0.34549667       1.13539275       1.31725915       0.00000000
H       12.29181548       9.98121361      12.41972294      -0.11130033      -0.07289132      -0.35252181      -0.62013190       1.47860215      -1.07036880       0.00000000
H        9.73671499      10.87101998      12.66894017       0.24300189       0.41347889      -0.43174549       1.32599074       0.87152613      -0.67963362       0.00000000
9
Lattice="23.296006118037088 0.0 0.0 0.0 22.649327160371357 0.0 0.0 0.0 22.71683509278982" Properties=species:S:1:pos:R:3:momenta:R:3:forces:R:3:magmoms:R:1 Energy:=T 4.1390592=T energy=-37.38713439151466 dipole="-0.07876470057678668 -0.29155489766590653 0.0046613280817384235" magmom=0.0 free_energy=-37.38713439151466 pbc="T T T"
C       12.43270240      11.86467427      10.74251597       0.73575455       0.83196240      -1.31554834       0.17705823       0.16117270      -0.74395783       0.00000000
C       11.62896660      10.76204188      11.59788015       0.11725296      -2.15494442       0.02447001      -0.61836443      -1.28113598      -0.58773977       0.00000000
O       10.51401691      11.61784520      12.22151779      -0.72998534       1.66097545       1.21899224      -0.39558247      -1.00384879       0.37116241       0.00000000
H       11.63093834      12.28272337       9.85234841       0.09414834      -0.11846655       0.19697741       1.02488033      -0.36250718       1.24241594       0.00000000
H       13.33976476      11.28618872      10.14142359      -0.27878365       0.22624732       0.06921797      -0.40693690       0.58940170       0.46743962       0.00000000
H       12.84084354      12.81264567      11.43778384      -0.09228246      -0.17647103      -0.33047233      -0.33080012      -0.91679976      -0.69751794       0.00000000
H       11.24352640       9.91389821      10.68219622       0.13568653       0.22149352       0.05065683       0.24311774       1.00479232       1.20923622       0.00000000