9
Lattice="23.296006118037088 0.0 0.0 0.0 22.649327160371357 0.0 0.0 0.0 22.71683509278982" Properties=species:S:1:pos:R:3:momenta:R:3:forces:R:3:magmoms:R:1 Energy:=T 4.1390592=T energy=-36.90988155032162 dipole="-0.011106306081184169 -0.30353106542112873 0.08935515954319442" magmom=0.0 free_energy=-36.90988155032162 pbc="T T T"
C       12.41965234      11.83003896      10.79135560      -0.59500786      -0.90135199      -0.79136135      -0.14933702      -0.34612562       0.56549166       0.00000000
C       11.61267682      10.82628071      11.59829663       0.02256283       0.32703643      -0.15768649      -0.36058729       0.51116032       0.21719358       0.00000000
O       10.50392788      11.52527099      12.18938147      -1.14612113      -0.29785542       0.30330274       0.52282938       4.74696868      -1.65863239       0.00000000
H       11.78473026      12.29811040      10.00389117      -0.18788094       0.13842173       0.03620484      -1.46383607       1.06566957      -1.77780697       0.00000000
H       13.29419889      11.34259713      10.30388284       0.01337163      -0.01474246      -0.18917990       2.05495925      -1.14992406      -1.15489400       0.00000000
H       12.79438844      12.64632932      11.46543315       0.01273426      -0.02148950       0.27120852       0.73664842       1.63042627       1.29833688       0.00000000
H       11.26927168       9.99238472      10.91988386       0.27069023      -0.20641526      -0.16007885      -0.52949230      -2.04098616      -1.73229083       0.00000000
H       12.27370738      10.33953542      12.38033855       0.32714542      -0.27769610      -0.07233024       1.69656869      -1.10899729       1.49883589       0.00000000
H        9.99944652      10.87098976      12.71430855      -0.07423241      -0.04086492       0.01344194      -2.56030584      -3.32433475       2.65900320       0.00000000
9
Lattice="23.296006118037088 0.0 0.0 0.0 22.649327160371357 0.0 0.0 0.0 22.71683509278982" Properties=species:S:1:pos:R:3:momenta:R:3:forces:R:3:magmoms:R:1 Energy:=T 4.1390592=T energy=-36.97727427171373 dipole="-0.005940638562848468 -0.3043099545095996 0.08354236202979516" magmom=0.0 free_energy=-36.97727427171373 pbc="T T T"
C       12.41985921      11.83767414      10.79653721      -0.55210249       0.96007388       0.45741967      -0.46232504      -0.58256112      -0.18427951       0.00000000
C       11.61443672      10.82720503      11.59616405       0.45537143       0.55497311      -0.67690711      -0.26219427       0.58802275       0.31146247       0.00000000
O       10.50601377      11.52799757      12.18845680      -0.48163005       0.57815669       0.01552531      -0.08800038       4.25076299      -1.11132585       0.00000000
H       11.78738796      12.29356978       9.98263748      -0.12672993       0.04064621      -0.39083840      -1.19488642       0.87899321      -1.40457132       0.00000000
H       13.29305718      11.34388956      10.30757587      -0.01094047       0.01290241      -0.11171945       2.01912965      -1.10434862      -1.08708374       0.00000000
H       12.79106419      12.65023082      11.45993250      -0.05291463       0.06606200       0.16413762       0.84162311       1.93492524       1.53549988       0.00000000
H       11.25031646       9.99881475      10.92297404      -0.11631475      -0.07554103      -0.09662652      -0.44681845      -2.08558547      -1.73108329       0.00000000
H       12.27724110      10.35977785      12.39162079       0.39851484       0.13683694       0.15679416       1.64947462      -1.14649019       1.39983253       0.00000000
H       10.00688456      10.85352419      12.72099114       0.08952109      -0.38540217       0.13971971      -2.10845806      -2.75730895       2.21614618       0.00000000
9
Lattice="23.296006118037088 0.0 0.0 0.0 22.649327160371357 0.0 0.0 0.0 22.71683509278982" Properties=species:S:1:pos:R:3:momenta:R:3:forces:R:3:magmoms:R:1 Energy:=T 4.1390592=T energy=-37.08252136261572 dipole="-0.011267282836769133 -0.30206899756016836 0.09019780506071914" magmom=0.0 free_energy=-37.08252136261572 pbc="T T T"
C       12.41720433      11.82631853      10.78817648      -0.59557153      -0.90439607      -0.76295425       0.12638333       0.22216422       0.59130260       0.00000000
C       11.61273288      10.82766930      11.59767366       0.00685575       0.33541980      -0.14263543      -0.27903688      -0.16977264       0.39571590       0.00000000
O       10.50044895      11.52471449      12.19018751      -1.12171652      -0.07353873       0.22520869       0.47097580       4.38766083      -1.52151517       0.00000000
H       11.77382453      12.30612989      10.00352807      -0.25550793       0.18814169      -0.04590972      -1.29007184       0.95902776      -1.56606396       0.00000000
H       13.29730915      11.34050294      10.29328348       0.10884774      -0.06824798      -0.24294606       1.83302104      -1.02892877      -1.03457276       0.00000000
H       12.79589030      12.64723307      11.48020088       0.04492506       0.04898390       0.32608539       0.57422636       1.23939305       0.93636032       0.00000000
H       11.28182717       9.97988538      10.91001155       0.24599454      -0.29874638      -0.23837622      -0.47616609      -1.71892398      -1.45613654       0.00000000
H       12.29167704      10.32467813      12.37860771       0.40149808      -0.32505981      -0.00716990       1.33122183      -0.81974874       1.15462488       0.00000000
H        9.99276625      10.86502112      12.71814497      -0.19443575      -0.19785160       0.13854877      -2.33461720      -3.06848057       2.43559997       0.00000000
9
Lattice="23.296006118037088 0.0 0.0 0.0 22.649327160371357 0.0 0.0 0.0 22.71683509278982" Properties=species:S:1:pos:R:3:momenta:R:3:forces:R:3:magmoms:R:1 Energy:=T 4.1390592=T energy=-37.18150652141403 dipole="-0.0007591400214310402 -0.30374910343742506 0.07889924006750594" magmom=0.0 free_energy=-37.18150652141403 pbc="T T T"
C       12.41755522      11.84154143      10.79838911      -0.57386260       0.93993181       0.43319946      -0.42379075      -0.23766477      -0.80201648       0.00000000
C       11.61627242      10.82953338      11.59342743       0.44599603       0.57023199      -0.65501101      -0.11959105       0.03334977       0.58019108       0.00000000
O       10.50452863      11.53009282      12.18842068      -0.49802135       0.76853535      -0.02549939      -0.57948672       3.50184118      -0.55928281       0.00000000
H       11.77978354      12.29660192       9.96191383      -0.17625173       0.07805703      -0.44747274      -0.82174162       0.64445098      -0.90169364       0.00000000
H       13.29494000      11.34319686      10.30083179       0.08231548      -0.03744217      -0.16097997       1.77844123      -0.94578434      -0.91890442       0.00000000
H       12.78949299      12.65576473      11.46976711      -0.01346241       0.15737439       0.23530371       0.76495128       1.78349994       1.36252698       0.00000000
H       11.24411456       9.99263873      10.91619481      -0.13437162      -0.17116385      -0.17515908      -0.28849371      -1.80836939      -1.46692138       0.00000000
H       12.29863180      10.36507328      12.40093528       0.46960186       0.08608904       0.21466975       1.24533262      -0.92006701       0.95697863       0.00000000
H       10.00872359      10.83144687      12.73045041      -0.00142623      -0.50421597       0.23520777      -1.59510061      -2.08102939       1.67232081       0.00000000
9
Lattice="23.296006118037088 0.0 0.0 0.0 22.649327160371357 0.0 0.0 0.0 22.71683509278982" Properties=species:S:1:pos:R:3:momenta:R:3:forces:R:3:magmoms:R:1 Energy:=T 4.1390592=T energy=-37.307594784142985 dipole="-0.011969000733813013 -0.2988039079894963 0.09057574733740162" magmom=0.0 free_energy=-37.307594784142985 pbc="T T T"
C       12.41478171      11.82264273      10.78511610      -0.58091828      -0.87836482      -0.73731157       0.47032677       0.83788096       0.45291940       0.00000000
C       11.61273289      10.82902380      11.59713015      -0.00365089       0.30573923      -0.11996811      -0.14881477      -1.03888025       0.52734336       0.00000000
O       10.49704102      11.52481950      12.19076416      -1.10851965       0.12390888       0.16223363       0.06642729       3.65280492      -1.04295666       0.00000000
H       11.75983168      12.31644432       9.99941739      -0.31182039       0.23050904      -0.11446860      -1.00308545       0.76625636      -1.22579204       0.00000000
H       13.30480581      11.33594654      10.28020839       0.18946195      -0.11374573      -0.28850570       1.44975263      -0.82383157      -0.82070798       0.00000000
H       12.79876627      12.65110267      11.49720932       0.06859597       0.09896307       0.36175559       0.38970088       0.79585978       0.51620216       0.00000000
H       11.29324320       9.96327267      10.89665472       0.22487947      -0.37236685      -0.30042354      -0.38368235      -1.27905059      -1.07055600       0.00000000
H       12.31283231      10.30785919      12.37963986       0.45612941      -0.35723839       0.03970582       0.89347632      -0.49062814       0.75424931       0.00000000
H        9.98049926      10.85170964      12.72780976      -0.29563325      -0.33274286       0.24439195      -1.78634977      -2.42456420       1.87454808       0.00000000
9
Lattice="23.296006118037088 0.0 0.0 0.0 22.649327160371357 0.0 0.0 0.0 22.71683509278982" Properties=species:S:1:pos:R:3:momenta:R:3:forces:R:3:magmoms:R:1 Energy:=T 4.1390592=T energy=-37.38746507730609 dipole="0.0041773589351681165 -0.3016145592706222 0.07432157910628612" magmom=0.0 free_energy=-37.38746507730609 pbc="T T T"
C       12.41516611      11.84536098      10.80007995      -0.58930585       0.93905297       0.37909559      -0.20508966       0.20187676      -1.40120267       0.00000000
C       11.61808411      10.83186843      11.59080732       0.44341200       0.55478011      -0.62109510       0.01436408      -0.66258158       0.80093327       0.00000000
O       10.50295613      11.53271604      12.18830025      -0.54065013       0.91757300      -0.03641056      -1.15644314       2.56727324       0.11495791       0.00000000
H       11.77021269      12.30117623       9.93903243      -0.20705776       0.10376257      -0.47844594      -0.43274223       0.40233045      -0.35959790       0.00000000
H       13.30107861      11.34024091      10.29188879       0.16031218      -0.07804413      -0.19986201       1.39774202      -0.70760966      -0.66445084       0.00000000
H       12.78975231      12.66556654      11.48286223       0.02050089       0.23745529       0.29489955       0.61810286       1.47755633       1.06433650       0.00000000
H       11.23722230       9.98213529      10.90590525      -0.14347973      -0.25027258      -0.23828337      -0.08240714      -1.41309797      -1.10362721       0.00000000
H       12.32300257      10.36816700      12.41253980       0.51967629       0.04693577       0.25014169       0.79379930      -0.67433349       0.48751065       0.00000000
H       10.00674557      10.80438967      12.74391152      -0.06446202      -0.58483382       0.30087833      -0.97184434      -1.20189265       1.00191732       0.00000000
9
Lattice="23.296006118037088 0.0 0.0 0.0 22.649327160371357 0.0 0.0 0.0 22.71683509278982" Properties=species:S:1:pos:R:3:momenta:R:3:forces:R:3:magmoms:R:1 Energy:=T 4.1390592=T energy=-37.50397987023166 dipole="-0.013157583169875952 -0.29432259998730964 0.09061297629765137" magmom=0.0 free_energy=-37.50397987023166 pbc="T T T"
C       12.41245354      11.81913519      10.78214668      -0.54892546      -0.82268311      -0.72165928       0.83248556       1.42959123       0.18447339       0.00000000
C       11.61270302      10.83016966      11.59669255      -0.00713767       0.23175904      -0.09220930       0.00682636      -1.97374280       0.60305151       0.00000000
O       10.49364312      11.52547523      12.19118356      -1.11968346       0.28049794       0.12697231      -0.52104003       2.72381853      -0.39295575       0.00000000
H       11.74343846      12.32859239       9.99237340      -0.35222589       0.26218687      -0.16466823      -0.64230816       0.52372903      -0.81843870       0.00000000
H       13.31577172      11.32941872      10.26516935       0.24888799      -0.14772848      -0.32246431       0.97019596      -0.56001510      -0.56215548       0.00000000
H       12.80257480      12.65687676      11.51545301       0.08312132       0.12743871       0.37616523       0.20180075       0.36372596       0.07058767       0.00000000
H       11.30374109       9.94359921      10.88073607       0.20836145      -0.42299307      -0.34297875      -0.28896461      -0.78255140      -0.66237797       0.00000000
H       12.33612565      10.28986619      12.38247693       0.48908016      -0.37304042       0.06695151       0.44834508      -0.15286236       0.35525057       0.00000000
H        9.96395756      10.83259621      12.74196033      -0.36593535      -0.43090572       0.31870214      -1.07649409      -1.57282633       1.15151322       0.00000000
9
Lattice="23.296006118037088 0.0 0.0 0.0 22.649327160371357 0.0 0.0 0.0 22.71683509278982" Properties=species:S:1:pos:R:3:momenta:R:3:forces:R:3:magmoms:R:1 Energy:=T 4.1390592=T energy=-37.52990634342306 dipole="0.00881217886127619 -0.298475217659388 0.07010696712366105" magmom=0.0 free_energy=-37.52990634342306 pbc="T T T"
C       12.41273582      11.84922108      10.80148939      -0.59063756       0.96030944       0.29728531       0.15086006       0.66372970      -1.93027723       0.00000000
C       11.61989868      10.83407042      11.58834806       0.44656421       0.50429005      -0.57761191       0.11400034      -1.39347583       0.96979016       0.00000000
O       10.50120928      11.53572632      12.18819714      -0.61037107       1.02030887      -0.01478693      -1.68273462       1.61633909       0.76559980       0.00000000
H       11.75960630      12.30671331       9.91529053      -0.21954066       0.11812478      -0.48369911      -0.07558668       0.18252796       0.14567819       0.00000000
H       13.31056200      11.33559167      10.28135577       0.21776408      -0.10590391      -0.22524570       0.94181563      -0.42689692      -0.36922459       0.00000000
H       12.79149074      12.67890412      11.49850429       0.04610188       0.30022651       0.33803909       0.42442102       1.07861504       0.69239265       0.00000000
H       11.23013283       9.96825032      10.89297472      -0.14198129      -0.30839999      -0.28243246       0.14342666      -0.95396805      -0.69421324       0.00000000
H       12.34927289      10.36964705      12.42531093       0.54748568       0.01974627       0.26259357       0.33865550      -0.43287765       0.01955499       0.00000000
H       10.00244194      10.77445636      12.75977021      -0.09794761      -0.62278287       0.33435397      -0.39175648      -0.34346947       0.36127824       0.00000000
9
Lattice="23.296006118037088 0.0 0.0 0.0 22.649327160371357 0.0 0.0 0.0 22.71683509278982" Properties=species:S:1:pos:R:3:momenta:R:3:forces:R:3:magmoms:R:1 Energy:=T 4.1390592=T energy=-37.61273727665528 dipole="-0.014629510166424007 -0.2893225496743338 0.09045596353936024" magmom=0.0 free_energy=-37.61273727665528 pbc="T T T"
C       12.41029255      11.81591476      10.77921431      -0.49967240      -0.73945851      -0.72087407       1.17319833       1.95948263      -0.15249801       0.00000000
C       11.61267452      10.83091914      11.59637606      -0.00288149       0.11289111      -0.06199186       0.16649376      -2.86679974       0.62746346       0.00000000
O       10.49016665      11.52654163      12.19154371      -1.15995943       0.39103072       0.12381586      -1.11907904       1.77730000       0.26441857       0.00000000
H       11.72550819      12.34199374       9.98337090      -0.37462936       0.28118090      -0.19451682      -0.27000654       0.24974612      -0.39705607       0.00000000
H       13.32905929      11.32155079      10.24878509       0.28406357      -0.16856450      -0.34321324       0.46222463      -0.28846971      -0.28278289       0.00000000
H       12.80686623      12.66352124      11.53386563       0.08878798       0.13604108       0.36986796       0.02895719      -0.01342012      -0.32702548       0.00000000
H       11.31354748       9.92205311      10.86323235       0.19630307      -0.44940613      -0.36532560      -0.20207697      -0.29304187      -0.24763134       0.00000000
H       12.36049188      10.27150738      12.38616411       0.50069959      -0.37276507       0.07583479       0.02482170       0.16407511       0.00649436       0.00000000
H        9.94483983      10.80971901      12.75886645      -0.40147291      -0.48669657       0.35747481      -0.37066703      -0.69908984       0.42738844       0.00000000
9
Lattice="23.296006118037088 0.0 0.0 0.0 22.649327160371357 0.0 0.0 0.0 22.71683509278982" Properties=species:S:1:pos:R:3:momenta:R:3:forces:R:3:magmoms:R:1 Energy:=T 4.1390592=T energy=-37.57591393170424 dipole="0.01309174795944638 -0.2949212432447144 0.06648439310094642" magmom=0.0 free_energy=-37.57591393170424 pbc="T T T"
C       12.41033583      11.85321447      10.80251117      -0.57273258       1.00351419       0.19201506       0.57826676       1.09565509      -2.35654062       0.00000000
C       11.62173615      10.83599256      11.58608356       0.45357336       0.41920806      -0.52693411       0.17142635      -2.07123486       1.09391268       0.00000000
O       10.49920872      11.53898030      12.18820946      -0.70289645       1.07846735       0.03620582      -2.08508614       0.75199212       1.31092843       0.00000000
H       11.74881904      12.31268718       9.89189723      -0.21551259       0.12245884      -0.46531484       0.23961800      -0.00603621       0.60296656       0.00000000
H       13.32229914      11.32992086      10.26993919       0.25256149      -0.11950981      -0.23620157       0.47520520      -0.12716315      -0.07692061       0.00000000
H       12.79424482      12.69482282      11.51580325       0.06195170       0.34210746       0.36159629       0.22101576       0.62686176       0.26690423       0.00000000
H       11.22338659       9.95208252      10.87838295      -0.12993480      -0.34355822      -0.30688663       0.34713067      -0.47774592      -0.30160971       0.00000000
H       12.37635361      10.37009123      12.43812885       0.55382821       0.00340250       0.25341797      -0.08037480      -0.23267380      -0.39320406       0.00000000
H        9.99720084      10.74370112      12.77649344      -0.10535816      -0.62040696       0.33804709       0.08998367       0.44022131      -0.21088687       0.00000000
9
Lattice="23.296006118037088 0.0 0.0 0.0 22.649327160371357 0.0 0.0 0.0 22.71683509278982" Properties=species:S:1:pos:R:3:momenta:R:3:forces:R:3:magmoms:R:1 Energy:=T 4.1390592=T energy=-37.61431829619565 dipole="-0.016136976313719128 -0.2844598211222129 0.09025457056211662" magmom=0.0 free_energy=-37.61431829619565 pbc="T T T"
C       12.40836717      11.81308784      10.77625132      -0.43489778      -0.63215743      -0.73670835       1.46455544       2.41003446      -0.49230590       0.00000000
C       11.61267945      10.83109289      11.59618557       0.00892774      -0.04694619      -0.03156147       0.31440204      -3.64209840       0.61172388       0.00000000
O       10.48652147      11.52787599      12.19194373      -1.22708008       0.45748477       0.15058761      -1.61420953       0.92884336       0.82578142       0.00000000
H       11.70693181      12.35599273       9.97341825      -0.37895065       0.28676226      -0.20426112       0.09403498      -0.02246181       0.00024840       0.00000000
H       13.34345296      11.31299255      10.23172413       0.29493958      -0.17644349      -0.35034550      -0.01933144      -0.03237878      -0.00765718       0.00000000
H       12.81122695      12.67013360      11.55149567       0.08677806       0.12765272       0.34536181      -0.11080543      -0.32817106      -0.67091443       0.00000000
H       11.32287030       9.89980576      10.84513605       0.18805299      -0.45281329      -0.36813299      -0.13388293       0.15429561       0.13330913       0.00000000
H       12.38491751      10.25354121      12.38986683       0.49286382      -0.35772358       0.06870799      -0.34391017       0.44844495      -0.29671208       0.00000000
H        9.92483509      10.78516891      12.77679531      -0.40452458      -0.50222527       0.36317960       0.24639668       0.06672968      -0.19507770       0.00000000
9
Lattice="23.296006118037088 0.0 0.0 0.0 22.649327160371357 0.0 0.0 0.0 22.71683509278982" Properties=species:S:1:pos:R:3:momenta:R:3:forces:R:3:magmoms:R:1 Energy:=T 4.1390592=T energy=-37.61431829619565 dipole="-0.016136976313719128 -0.2844598211222129 0.09025457056211662" magmom=0.0 free_energy=-37.61431829619565 pbc="T T T"
C       12.40669064      11.81065512      10.77297033      -0.36877108      -0.52668654      -0.82352122       1.46455544       2.41003446      -0.49230590       0.00000000
C       11.61273742      10.83063079      11.59617598       0.02549056      -0.21812866       0.01203876       0.31440204      -3.64209840       0.61172388       0.00000000
O       10.48257551      11.52927950      12.19253808      -1.33507364       0.46170853       0.22535636      -1.61420953       0.92884336       0.82578142       0.00000000
H       11.68907890      12.36977340       9.96467688      -0.35527516       0.27553561      -0.17000834       0.09403498      -0.02246181       0.00024840       0.00000000
H       13.35777722      11.30463419      10.21490863       0.28372960      -0.16707036      -0.33842428      -0.01933144      -0.03237878      -0.00765718       0.00000000
H       12.81546167      12.67651312      11.56808207       0.08136589       0.11678861       0.31697016      -0.11080543      -0.32817106      -0.67091443       0.00000000
H       11.33267072       9.87774728      10.82730347       0.19946885      -0.43939782      -0.35432696      -0.13388293       0.15429561       0.13330913       0.00000000
H       12.40838913      10.23603941      12.39230114       0.46536823      -0.34195040       0.03622944      -0.34391017       0.44844495      -0.29671208       0.00000000
H        9.90573075      10.76207016      12.79363369      -0.37267108      -0.45619909       0.32743665       0.24639668       0.06672968      -0.19507770       0.00000000
9
Lattice="23.296006118037088 0.0 0.0 0.0 22.649327160371357 0.0 0.0 0.0 22.71683509278982" Properties=species:S:1:pos:R:3:momenta:R:3:forces:R:3:magmoms:R:1 Energy:=T 4.1390592=T energy=-37.61431829619565 dipole="-0.016136976313719128 -0.2844598211222129 0.09025457056211662" magmom=0.0 free_energy=-37.61431829619565 pbc="T T T"
C       12.40535133      11.80878056      10.76951649      -0.29182568      -0.41096479      -0.91536626       1.46455544       2.41003446      -0.49230590       0.00000000
C       11.61288792      10.82930902      11.59628403       0.04272365      -0.40337918       0.05735837       0.31440204      -3.64209840       0.61172388       0.00000000
O       10.47832469      11.53071068      12.19332732      -1.44772055       0.44979798       0.30855811      -1.61420953       0.92884336       0.82578142       0.00000000
H       11.67231118      12.38284295       9.95685138      -0.32607913       0.26142332      -0.12695256       0.09403498      -0.02246181       0.00024840       0.00000000
H       13.37110167      11.29671199      10.19874557       0.25658221      -0.14818635      -0.31967926      -0.01933144      -0.03237878      -0.00765718       0.00000000
H       12.81915584      12.68151434      11.58238358       0.07044307       0.09299108       0.27624885      -0.11080543      -0.32817106      -0.67091443       0.00000000
H       11.34230802       9.85698760      10.81060782       0.21488547      -0.41383915      -0.33096894      -0.13388293       0.15429561       0.13330913       0.00000000
H       12.43026642      10.22021905      12.39339730       0.42970792      -0.32250940      -0.00439618      -0.34391017       0.44844495      -0.29671208       0.00000000
H        9.88851927      10.74071351      12.80870315      -0.33198828      -0.39456228       0.28072817       0.24639668       0.06672968      -0.19507770       0.00000000
9
Lattice="23.296006118037088 0.0 0.0 0.0 22.649327160371357 0.0 0.0 0.0 22.71683509278982" Properties=species:S:1:pos:R:3:momenta:R:3:forces:R:3:magmoms:R:1 Energy:=T 4.1390592=T energy=-37.527968506505054 dipole="0.0170021460762603 -0.2914754872670443 0.06357290590396063" magmom=0.0 free_energy=-37.527968506505054 pbc="T T T"
C       12.40805197      11.85742790      10.80305970      -0.53373893       1.06638903       0.06854877       1.00963368       1.46473569      -2.67125639       0.00000000
C       11.62360804      10.83749874      11.58403875       0.46250064       0.30363894      -0.47115852       0.19211061      -2.63497351       1.17738210       0.00000000
O       10.49689380      11.54234765      12.18841943      -0.81165672       1.09735095       0.11074486      -2.34385191       0.01698609       1.72445170       0.00000000
H       11.73860517      12.31864660       9.86994682      -0.19744077       0.11863233      -0.42634997       0.49630308      -0.14978696       0.98376190       0.00000000
H       13.33517345      11.32394575      10.25833854       0.26537582      -0.11914343      -0.23328963       0.04662029       0.14208304       0.19550101       0.00000000
H       12.79752777      12.71224159      11.53374090       0.06802758       0.36245258       0.36498686       0.02640655       0.20163269      -0.12883341       0.00000000
H       11.21747103       9.93477148      10.86306943      -0.10848479      -0.35645757      -0.31286122       0.52635737      -0.04754184       0.05831230       0.00000000
H       12.40324199      10.36997862      12.45000584       0.54096239      -0.00379430       0.22617523      -0.44354736      -0.06039474      -0.71617552       0.00000000
H        9.99217506      10.71399933      12.79271201      -0.09212065      -0.58362390       0.31698746       0.44907471       1.05765958      -0.64670363       0.00000000
9
Lattice="23.296006118037088 0.0 0.0 0.0 22.649327160371357 0.0 0.0 0.0 22.71683509278982" Properties=species:S:1:pos:R:3:momenta:R:3:forces:R:3:magmoms:R:1 Energy:=T 4.1390592=T energy=-37.527968506505054 dipole="0.0170021460762603 -0.2914754872670443 0.06357290590396063" magmom=0.0 free_energy=-37.527968506505054 pbc="T T T"
C  91787204551.56785583 409414514422.93890381 -348540537871.42620850 137763249770253267375142993920.00000000 2280625988442224748498130042880.00000000 1456951421596191471353987072000.00000000       1.00963368       1.46473569      -2.67125639       0.00000000
C  72773276755.02847290 -10503176561.51287270 -528862188749.47369385 -1034257412786836175732818837504.00000000 705929110277090162728278949888.00000000 2600278534185138073150775361536.00000000       0.19211061      -2.63497351       1.17738210       0.00000000
O  -5638621021730.50976562 -7642030880186.35058594 -2479019582793.19433594 220766085476231519551707068497920.00000000 -433129881876981089784794682753024.00000000 -250644317218439189719846110625792.00000000      -2.34385191       0.01698609       1.72445170       0.00000000
H  -42869940402089.35156250 4168539787275.18701172 20756837088016.91015625 22443467378794699341744215949312.00000000 2757353097340518157854575689728.00000000 1152158979082153793109390000128.00000000       0.49630308      -0.14978696       0.98376190       0.00000000
H  -1848347260118.58129883 1965472141263.46704102 -6568797366519.92968750 543062174116783616842209951744.00000000 -504667982377336069436810985472.00000000 855319385180714818433775042560.00000000       0.04662029       0.14208304       0.19550101       0.00000000
H  14062833843.18745041 368592627845.87335205 -408164953001.74017334 25015783356895303835190296576.00000000 73779249837867541823230050304.00000000 144472564669092389976719491072.00000000       0.02640655       0.20163269      -0.12883341       0.00000000
H  -7205325876217.19433594 2253106905743.30810547 214218866398.75155640 1228784301004183547680915456000.00000000 -441551128408745119637185757184.00000000 -37044810509342584821851881472.00000000       0.52635737      -0.04754184       0.05831230       0.00000000
H  286589173560.49847412 -6558608783062.86621094 -12894611456342.67578125 -100687223118186407173692588032.00000000 -3639108403157684563975837057024.00000000 -5630309493025295245386637639680.00000000      -0.44354736      -0.06039474      -0.71617552       0.00000000
H  5474067217505.28710938 -95094748531836.40625000 12451283551081.97656250 -187920326253635574904089739264.00000000 133324303986910452836325306400768.00000000 -65582619626722942472717913292800.00000000       0.44907471       1.05765958      -0.64670363       0.00000000
9
Lattice="23.296006118037088 0.0 0.0 0.0 22.649327160371357 0.0 0.0 0.0 22.71683509278982" Properties=species:S:1:pos:R:3:momenta:R:3:forces:R:3:magmoms:R:1 Energy:=T 4.1390592=T energy=-37.527968506505054 dipole="0.0170021460762603 -0.2914754872670443 0.06357290590396063" magmom=0.0 free_energy=-37.527968506505054 pbc="T T T"
C  1126639210357289223362445312.00000000 18651147290905957229261750272.00000000 11915068800231636388171218944.00000000 38301738295108580778876993701431158010544128.00000000 29748439420995973549207946495901889499618082816.00000000 22243399469502418965420760687837617964032458752.00000000       1.00963368       1.46473569      -2.67125639       0.00000000