9
Lattice="23.296006118037088 0.0 0.0 0.0 22.649327160371357 0.0 0.0 0.0 22.71683509278982" Properties=species:S:1:pos:R:3:momenta:R:3:forces:R:3:magmoms:R:1 Energy:=T 4.1390592=T energy=-36.84352068998288 dipole="-0.008374601392484637 -0.30491458464862914 0.08901226519765952" magmom=0.0 free_energy=-36.84352068998288 pbc="T T T"
C       12.41935761      11.83582855      10.79671187      -0.66701056       0.51044308       0.51631058      -0.14626541      -0.51254269       0.47445221       0.00000000
C       11.61131385      10.82485623      11.59681338      -0.31104795      -0.00679196      -0.52019256      -0.37225830       1.10306643       0.22672710       0.00000000
O       10.50735700      11.52695764      12.18697001      -0.03841298       0.25124244      -0.47785894       0.14208948       4.73320640      -1.48005253       0.00000000
H       11.79709795      12.30112693       9.99449271       0.06702660       0.19779908      -0.15590806      -1.42008891       0.96250045      -1.74603677       0.00000000
H       13.28603292      11.32005773      10.32585644      -0.15297937      -0.47665013       0.26085517       2.10572060      -1.12188556      -1.19353553       0.00000000
H       12.80621010      12.66503732      11.44581990       0.25533173       0.36198272      -0.12924376       0.73546535       1.61051052       1.38336621       0.00000000
H       11.25939955      10.00492544      10.92227090       0.06620792       0.04432259      -0.11777457      -0.60554283      -2.31165420      -2.00460381       0.00000000
H       12.23943452      10.33717284      12.39141746      -0.36954967      -0.33054909       0.15957473       1.97011788      -1.28669924       1.68300860       0.00000000
H       10.00930159      10.86976311      12.71939872       0.13015445      -0.06273600       0.11684182      -2.47387912      -3.18976698       2.61542308       0.00000000
9
Lattice="23.296006118037088 0.0 0.0 0.0 22.649327160371357 0.0 0.0 0.0 22.71683509278982" Properties=species:S:1:pos:R:3:momenta:R:3:forces:R:3:magmoms:R:1 Energy:=T 4.1390592=T energy=-36.923457354766185 dipole="-0.005920122694335917 -0.3047707154361846 0.08609089324596937" magmom=0.0 free_energy=-36.923457354766185 pbc="T T T"
C       12.41784210      11.83341724      10.79021188      -1.02928769      -0.08155198      -1.07294735       0.19375799      -0.60589188       0.48892769       0.00000000
C       11.61520659      10.82564428      11.60032268       0.63670509       0.17183254       0.32466637      -0.54494664       0.52898649      -0.31743202       0.00000000
O       10.50641417      11.52414479      12.18654116      -0.34251969      -0.66561113      -0.61281947       0.26533825       4.71079440      -1.28700918       0.00000000
H       11.80005292      12.29194479       9.98511843       0.12604399       0.01150885      -0.34972927      -1.48647448       1.05058421      -1.80404558       0.00000000
H       13.31680284      11.35429920      10.31960077       0.47077038       0.22851246       0.13756461       1.78934939      -1.02438844      -0.98584785       0.00000000
H       12.79349771      12.65400802      11.46138431      -0.00796188       0.13583793       0.18789745       0.63831196       1.61945227       1.28965705       0.00000000
H       11.24235690       9.98534899      10.93641452      -0.27818395      -0.34713997       0.18075350      -0.38606765      -1.89130052      -1.66881823       0.00000000
H       12.26977494      10.33745310      12.37306550       0.25205530      -0.32376101      -0.21542074       1.92537911      -1.24451010       1.75053323       0.00000000
H       10.00074430      10.85730725      12.70249884      -0.04539532      -0.31746320      -0.23324729      -2.47065374      -3.15248213       2.48357883       0.00000000
9
Lattice="23.296006118037088 0.0 0.0 0.0 22.649327160371357 0.0 0.0 0.0 22.71683509278982" Properties=species:S:1:pos:R:3:momenta:R:3:forces:R:3:magmoms:R:1 Energy:=T 4.1390592=T energy=-36.96423745549896 dipole="-0.005787009740381735 -0.30473269396047464 0.08946600339838953" magmom=0.0 free_energy=-36.96423745549896 pbc="T T T"
C       12.41661549      11.83786431      10.79887073      -0.66621955       0.49496889       0.53745466       0.17847698      -0.11759754       0.38657761       0.00000000
C       11.61000458      10.82493922      11.59470905      -0.32781203       0.04329485      -0.50341885      -0.31040870       0.93657010       0.45633245       0.00000000
O       10.50724980      11.52808571      12.18539152      -0.04090079       0.47475981      -0.54316914      -0.24339820       4.36887310      -1.17951103       0.00000000
H       11.79866460      12.31191606       9.98480717       0.00218890       0.24046312      -0.23544042      -1.22023352       0.77486523      -1.49268178       0.00000000
H       13.28109868      11.29549125      10.33713821      -0.05400800      -0.52801430       0.20408121       1.92459405      -0.96976755      -1.11841486       0.00000000
H       12.81953078      12.68460142      11.44117786       0.28699554       0.43030563      -0.06807271       0.55394900       1.17173661       1.10764249       0.00000000
H       11.26190091      10.00431912      10.91413399       0.03690020      -0.06690966      -0.21538172      -0.58792681      -2.21794783      -1.97015668       0.00000000
H       12.22378594      10.31952774      12.40120624      -0.27616499      -0.39005490       0.23651794       1.83269523      -1.13649752       1.45027475       0.00000000
H       10.01268321      10.86288984      12.72822102       0.01561122      -0.21031276       0.23871893      -2.19055264      -2.81985732       2.34765950       0.00000000
9
Lattice="23.296006118037088 0.0 0.0 0.0 22.649327160371357 0.0 0.0 0.0 22.71683509278982" Properties=species:S:1:pos:R:3:momenta:R:3:forces:R:3:magmoms:R:1 Energy:=T 4.1390592=T energy=-37.09773428633059 dipole="-0.0010279880618838453 -0.30422404759325233 0.0838838604175941" magmom=0.0 free_energy=-37.09773428633059 pbc="T T T"
C       12.41365276      11.83302293      10.78587364      -1.00526699      -0.10313244      -1.04990904       0.78441345      -0.27290786       0.44923887       0.00000000
C       11.61775538      10.82640003      11.60161838       0.60828880       0.18164148       0.30319938      -0.61222206      -0.12954643      -0.55674723       0.00000000
O       10.50538271      11.52245663      12.18456292      -0.33605596      -0.44376756      -0.66475721      -0.00212206       4.32312467      -0.82800090       0.00000000
H       11.80441569      12.29376256       9.96591980       0.05668962       0.06030488      -0.43389004      -1.33777587       0.93648901      -1.62315121       0.00000000
H       13.34188145      11.36420749      10.32512387       0.54762991       0.18325064       0.09478557       1.34052589      -0.81876464      -0.75620121       0.00000000
H       12.79387351      12.66256421      11.47208244       0.01720924       0.20561311       0.24218854       0.38670731       1.22193421       0.92118585       0.00000000
H       11.22834083       9.96617212      10.94322476      -0.29232704      -0.42893187       0.10605939      -0.18986772      -1.43943139      -1.37287681       0.00000000
H       12.28435971      10.32018922      12.36466391       0.34219982      -0.38037735      -0.13335727       1.74548799      -1.06102177       1.59125718       0.00000000
H        9.99557635      10.83806735      12.69410576      -0.15953415      -0.46262224      -0.11972768      -2.17731029      -2.75868742       2.13916958       0.00000000
9
Lattice="23.296006118037088 0.0 0.0 0.0 22.649327160371357 0.0 0.0 0.0 22.71683509278982" Properties=species:S:1:pos:R:3:momenta:R:3:forces:R:3:magmoms:R:1 Energy:=T 4.1390592=T energy=-37.15718141686544 dipole="-0.0036110682637597075 -0.30256054879880007 0.08936969661247701" magmom=0.0 free_energy=-37.15718141686544 pbc="T T T"
C       12.41390921      11.83987645      10.80110722      -0.64647600       0.50016351       0.55014092       0.62552014       0.32913305       0.13003233       0.00000000
C       11.60863297      10.82521030      11.59269637      -0.34095902       0.07720612      -0.47571737      -0.22496344       0.44436527       0.67172751       0.00000000
O       10.50710589      11.52987246      12.18363519      -0.06871883       0.67199471      -0.58618487      -0.88940865       3.66293105      -0.57217662       0.00000000
H       11.79731125      12.32455943       9.97154966      -0.05069655       0.27199406      -0.29970031      -0.93336873       0.50913851      -1.12411110       0.00000000
H       13.28076998      11.26860413      10.34574362       0.03206489      -0.56851173       0.15306585       1.58046804      -0.67936972      -0.95903398       0.00000000
H       12.83417706      12.70696948      11.43918640       0.30905148       0.47507411      -0.02194227       0.34421346       0.65132626       0.77088235       0.00000000
H       11.26299537       9.99840527      10.90128252       0.01032685      -0.16879852      -0.30697714      -0.49419375      -1.93117279      -1.75979421       0.00000000
H       12.21252297      10.29916302      12.41446551      -0.19212400      -0.43966891       0.29833008       1.58962378      -0.88388551       1.06684040       0.00000000
H       10.01082286      10.84926869      12.74266125      -0.07869712      -0.33130538       0.33997470      -1.64987374      -2.10720670       1.77568016       0.00000000
9
Lattice="23.296006118037088 0.0 0.0 0.0 22.649327160371357 0.0 0.0 0.0 22.71683509278982" Properties=species:S:1:pos:R:3:momenta:R:3:forces:R:3:magmoms:R:1 Energy:=T 4.1390592=T energy=-37.34036391035024 dipole="-0.001827543542946073 -0.29880478101877 0.08886986048143433" magmom=0.0 free_energy=-37.34036391035024 pbc="T T T"
C       12.41132855      11.84195469      10.80336982      -0.60322518       0.52682745       0.54731057       1.13574085       0.75667650      -0.24528964       0.00000000
C       11.60721619      10.82557062      11.59081860      -0.35006093       0.08156739      -0.43842420      -0.14568483      -0.26676569       0.84692603       0.00000000
O       10.50682789      11.53221147      12.18179260      -0.13042443       0.83070994      -0.59599096      -1.62336812       2.80027418       0.17285297       0.00000000
H       11.79372436      12.33842116       9.95560216      -0.08848060       0.28964401      -0.34455170      -0.60527440       0.20960321      -0.70232791       0.00000000
H       13.28422332      11.24009128      10.35205407       0.09868025      -0.59294090       0.11096995       1.13224392      -0.31543520      -0.75519620       0.00000000
H       12.84964704      12.73089615      11.43903965       0.32023419       0.49445362       0.00774265       0.11116945       0.13784663       0.43794776       0.00000000
H       11.26290723       9.98787015      10.88421988      -0.01039602      -0.25319607      -0.38489529      -0.34968329      -1.50566602      -1.41319060       0.00000000
H       12.20506396      10.27668317      12.43027772      -0.12116304      -0.47585803       0.33893674       1.30005014      -0.58980846       0.58674500       0.00000000
H       10.00501438      10.83060501      12.76135066      -0.14401061      -0.41336626       0.40963926      -1.00982372      -1.23447849       1.06120174       0.00000000
9
Lattice="23.296006118037088 0.0 0.0 0.0 22.649327160371357 0.0 0.0 0.0 22.71683509278982" Properties=species:S:1:pos:R:3:momenta:R:3:forces:R:3:magmoms:R:1 Energy:=T 4.1390592=T energy=-37.30480191241534 dipole="0.0030276378492336544 -0.30148016451260773 0.08141629357399649" magmom=0.0 free_energy=-37.30480191241534 pbc="T T T"
C       12.40962094      11.83257381      10.78162563      -0.95200930      -0.10567370      -1.03252112       1.38434732       0.16942237       0.25883268       0.00000000
C       11.62018123      10.82712976      11.60280227       0.57903208       0.15450001       0.27267623      -0.57917115      -0.97570916      -0.68621695       0.00000000
O       10.50435093      11.52142025      12.18245984      -0.34941227      -0.24948170      -0.68850051      -0.54177393       3.58858834      -0.13887404       0.00000000
H       11.80557718      12.29782134       9.94283699      -0.00273450       0.10129720      -0.50503408      -1.08209433       0.73280098      -1.27397833       0.00000000
H       13.37016793      11.37215649      10.32883738       0.59972318       0.14876258       0.06416755       0.78081748      -0.58565891      -0.49062632       0.00000000
H       12.79517471      12.67404448      11.48498495       0.02983582       0.25472651       0.27735396       0.12747246       0.77806291       0.51082101       0.00000000
H       11.21387040       9.94355071      10.94674973      -0.29588935      -0.48667534       0.04686226       0.04480353      -0.91199945      -1.03775025       0.00000000
H       12.30312141      10.30038633      12.36007019       0.42017401      -0.42556811      -0.06256588       1.42977869      -0.77923735       1.29151124       0.00000000
H        9.98519811      10.81222593      12.69083169      -0.25273550      -0.57977348      -0.02905104      -1.61803712      -2.01194809       1.55336648       0.00000000
9
Lattice="23.296006118037088 0.0 0.0 0.0 22.649327160371357 0.0 0.0 0.0 22.71683509278982" Properties=species:S:1:pos:R:3:momenta:R:3:forces:R:3:magmoms:R:1 Energy:=T 4.1390592=T energy=-37.44937914410581 dipole="-0.00040855930460491656 -0.29397030295546484 0.08822477005488223" magmom=0.0 free_energy=-37.44937914410581 pbc="T T T"
C       12.40897599      11.84418489      10.80558317      -0.53479181       0.57283381       0.52469164       1.65100461       1.11679545      -0.67579909       0.00000000
C       11.60577015      10.82587737      11.58911090      -0.35582670       0.04877792      -0.39382073      -0.08910904      -1.06848775       0.96941746       0.00000000
O       10.50630514      11.53497266      12.17997606      -0.22677267       0.94715898      -0.56968244      -2.30012722       1.94176619       0.89848322       0.00000000
H       11.78868905      12.35278447       9.93797400      -0.11013651       0.29291085      -0.36843141      -0.27659814      -0.07657098      -0.27010237       0.00000000
H       13.29038611      11.21082360      10.35655735       0.14275410      -0.59867466       0.07932497       0.66253263       0.08194477      -0.53345113       0.00000000
H       12.86538304      12.75515268      11.43994090       0.32005523       0.48938384       0.02210461      -0.11845720      -0.34429815       0.14690040       0.00000000
H       11.26198231       9.97373198      10.86377548      -0.02310772      -0.31487528      -0.44425989      -0.16796304      -1.00603616      -1.00425577       0.00000000
H       12.20071595      10.25279191      12.44749400      -0.06487025      -0.49651911       0.35613299       0.99230608      -0.25155264       0.11352092       0.00000000
H        9.99678941      10.80898723      12.78257952      -0.17843663      -0.45286336       0.44432027      -0.39207361      -0.37392347       0.35107902       0.00000000
9
Lattice="23.296006118037088 0.0 0.0 0.0 22.649327160371357 0.0 0.0 0.0 22.71683509278982" Properties=species:S:1:pos:R:3:momenta:R:3:forces:R:3:magmoms:R:1 Energy:=T 4.1390592=T energy=-37.466436054514105 dipole="0.006101557133074378 -0.29708214355717744 0.07876803819294557" magmom=0.0 free_energy=-37.466436054514105 pbc="T T T"
C       12.40586715      11.83215872      10.77742960      -0.87063334      -0.08527549      -1.02710384       1.92944667       0.66123417      -0.03823026       0.00000000
C       11.62249076      10.82766354      11.60384835       0.55328656       0.08414297       0.23807839      -0.46923846      -1.88937199      -0.72267725       0.00000000
O       10.50323747      11.52092492      12.18033582      -0.39184780      -0.09529524      -0.67699514      -1.18628658       2.69019619       0.60739600       0.00000000
H       11.80414922      12.30363371       9.91670556      -0.04797565       0.13137015      -0.55650201      -0.76021681       0.49183023      -0.82189979       0.00000000
H       13.40032290      11.37870402      10.33137683       0.62366226       0.12568452       0.04655752       0.19403021      -0.35412614      -0.22648972       0.00000000
H       12.79678094      12.68738664      11.49910985       0.02991081       0.28232268       0.29269513      -0.12441874       0.34570889       0.11390262       0.00000000
H       11.19950719       9.91874689      10.94779137      -0.28753587      -0.51879269       0.00423212       0.29536682      -0.39588390      -0.69823503       0.00000000
H       12.32530456      10.27871873      12.35856703       0.48044978      -0.45546354      -0.00809532       1.02477277      -0.43816510       0.92664034       0.00000000
H        9.97094794      10.78156995      12.69127481      -0.31579297      -0.65648241       0.03066331      -0.94979075      -1.11179468       0.87832282       0.00000000
9
Lattice="23.296006118037088 0.0 0.0 0.0 22.649327160371357 0.0 0.0 0.0 22.71683509278982" Properties=species:S:1:pos:R:3:momenta:R:3:forces:R:3:magmoms:R:1 Energy:=T 4.1390592=T energy=-37.45652707428648 dipole="0.0006779498499568283 -0.2885732608386478 0.08773789146979342" magmom=0.0 free_energy=-37.45652707428648 pbc="T T T"
C       12.40695498      11.84663937      10.80766080      -0.44214680       0.63438157       0.48105963       2.12168754       1.38955381      -1.10098458       0.00000000
C       11.60430621      10.82596953      11.58759790      -0.35943767      -0.02280647      -0.34449268      -0.05793681      -1.84657356       1.03932044       0.00000000
O       10.50543561      11.53802661      12.17829499      -0.35297302       1.02373630      -0.51049290      -2.83900598       1.17661728       1.51183467       0.00000000
H       11.78299184      12.36696455       9.91969949      -0.11638724       0.28248548      -0.37135634       0.02205584      -0.34797099       0.15099318       0.00000000
H       13.29813433      11.18175201      10.35978408       0.16430176      -0.58506358       0.05782807       0.21493136       0.47232587      -0.34194619       0.00000000
H       12.88083558      12.77858531      11.44119368       0.30937256       0.46225752       0.02337929      -0.31656281      -0.76034050      -0.09499318       0.00000000
H       11.26065545       9.95718638      10.84092792      -0.02708489      -0.35158083      -0.48287229       0.00600488      -0.48868812      -0.56811948       0.00000000
H       12.19874252      10.22829868      12.46498194      -0.02323793      -0.50093469       0.35038057       0.70304618       0.07174158      -0.34777093       0.00000000
H        9.98762620      10.78647466      12.80464850      -0.18502219      -0.45291504       0.44622259       0.12389632       0.37181897      -0.27361263       0.00000000
9
Lattice="23.296006118037088 0.0 0.0 0.0 22.649327160371357 0.0 0.0 0.0 22.71683509278982" Properties=species:S:1:pos:R:3:momenta:R:3:forces:R:3:magmoms:R:1 Energy:=T 4.1390592=T energy=-37.45652707428648 dipole="0.0006779498499568283 -0.2885732608386478 0.08773789146979342" magmom=0.0 free_energy=-37.45652707428648 pbc="T T T"
C       12.40536886      11.84930597      10.80962569      -0.33401059       0.68277746       0.45863350       2.12168754       1.38955381      -1.10098458       0.00000000
C       11.60279925      10.82572394      11.58612664      -0.37034299      -0.08697517      -0.34415358      -0.05793681      -1.84657356       1.03932044       0.00000000
O       10.50425522      11.54134805      12.17678298      -0.44923650       1.11551319      -0.46702111      -2.83900598       1.17661728       1.51183467       0.00000000
H       11.77653944      12.38121993       9.90080541      -0.13331310       0.28535594      -0.38624363       0.02205584      -0.34797099       0.15099318       0.00000000
H       13.30639476      11.15293206      10.36221656       0.17446863      -0.58264346       0.04235217       0.21493136       0.47232587      -0.34194619       0.00000000
H       12.89563726      12.80149032      11.44227542       0.29942515       0.45593054       0.02094773      -0.31656281      -0.76034050      -0.09499318       0.00000000
H       11.25943784       9.93949401      10.81682841      -0.02430853      -0.37399498      -0.50477912       0.00600488      -0.48868812      -0.56811948       0.00000000
H       12.19859464      10.20356138      12.48300059       0.01564068      -0.50824928       0.36311934       0.70304618       0.07174158      -0.34777093       0.00000000
H        9.97773600      10.76344225      12.82712073      -0.20314804      -0.46844451       0.45873933       0.12389632       0.37181897      -0.27361263       0.00000000
9
Lattice="23.296006118037088 0.0 0.0 0.0 22.649327160371357 0.0 0.0 0.0 22.71683509278982" Properties=species:S:1:pos:R:3:momenta:R:3:forces:R:3:magmoms:R:1 Energy:=T 4.1390592=T energy=-37.45652707428648 dipole="0.0006779498499568283 -0.2885732608386478 0.08773789146979342" magmom=0.0 free_energy=-37.45652707428648 pbc="T T T"
C       12.40422342      11.85222318      10.81141154      -0.22895547       0.73200637       0.43649362       2.12168754       1.38955381      -1.10098458       0.00000000
C       11.60127751      10.82525824      11.58478338      -0.37938614      -0.13104084      -0.33981721      -0.05793681      -1.84657356       1.03932044       0.00000000
O       10.50267749      11.54487538      12.17542768      -0.54725601       1.20182002      -0.42482447      -2.83900598       1.17661728       1.51183467       0.00000000
H       11.77000083      12.39477174       9.88206107      -0.14809523       0.28656771      -0.39821108       0.02205584      -0.34797099       0.15099318       0.00000000
H       13.31513584      11.12497494      10.36391119       0.18392629      -0.57854147       0.02753261       0.21493136       0.47232587      -0.34194619       0.00000000
H       12.91001377      12.82301454      11.44323498       0.29168379       0.44872051       0.01858936      -0.31656281      -0.76034050      -0.09499318       0.00000000
H       11.25828665       9.92074155      10.79173852      -0.02282673      -0.39511528      -0.52392896       0.00600488      -0.48868812      -0.56811948       0.00000000
H       12.20026667      10.17877113      12.50036696       0.05331017      -0.51347479       0.37304258       0.70304618       0.07174158      -0.34777093       0.00000000
H        9.96782996      10.74082598      12.84935144      -0.21750288      -0.47886340       0.46705864       0.12389632       0.37181897      -0.27361263       0.00000000
9
Lattice="23.296006118037088 0.0 0.0 0.0 22.649327160371357 0.0 0.0 0.0 22.71683509278982" Properties=species:S:1:pos:R:3:momenta:R:3:forces:R:3:magmoms:R:1 Energy:=T 4.1390592=T energy=-37.53243225574242 dipole="0.00816590995498443 -0.2917448502337756 0.07601634994151606" magmom=0.0 free_energy=-37.53243225574242 pbc="T T T"
C       12.40250083      11.83187642      10.77322589      -0.76460628      -0.04102087      -1.03755412       2.38818941       1.14090356      -0.38732615       0.00000000
C       11.62470605      10.82781789      11.60474929       0.53400494      -0.03012707       0.20316592      -0.31594788      -2.76393504      -0.69902898       0.00000000
O       10.50194516      11.52083518      12.17830338      -0.46496137       0.01474676      -0.63068217      -1.79104571       1.79093675       1.27856160       0.00000000
H       11.80090208      12.31062302       9.88860733      -0.07700198       0.14927020      -0.58493668      -0.42179409       0.23709616      -0.33601741       0.00000000
H       13.43094218      11.38440412      10.33337429       0.61927067       0.11339983       0.04072374      -0.37286462      -0.14613162      -0.01107350       0.00000000
H       12.79808943      12.70155608      11.51350732       0.01847390       0.28958169       0.28883508      -0.34131556      -0.05010758      -0.27109165       0.00000000
H       11.18585079       9.89299573      10.94716214      -0.26727519      -0.52653089      -0.02264473       0.52968933       0.08076861      -0.39624486       0.00000000
H       12.34993998      10.25600261      12.35928132       0.52037263      -0.46786631       0.02778310       0.60096640      -0.06690094       0.53440130       0.00000000
H        9.95442492      10.74825345      12.69381975      -0.34698724      -0.68903849       0.05899372      -0.32050286      -0.21395495       0.27534868       0.00000000
9
Lattice="23.296006118037088 0.0 0.0 0.0 22.649327160371357 0.0 0.0 0.0 22.71683509278982" Properties=species:S:1:pos:R:3:momenta:R:3:forces:R:3:magmoms:R:1 Energy:=T 4.1390592=T energy=-36.89704803834812 dipole="0.0013329885425000508 -0.2702807697774312 0.08717499565306742" magmom=0.0 free_energy=-36.89704803834812 pbc="T T T"
C       12.40349644      11.85529238      10.81319538      -0.10167147       0.79587212       0.38222122       3.09952615       1.84393043      -2.20008808       0.00000000
C       11.59969660      10.82465228      11.58334759      -0.38685142      -0.23749291      -0.32297382      -0.00934074      -3.63652563       1.14665542       0.00000000
O       10.50089530      11.54872670      12.17417474      -0.67159407       1.23897924      -0.34080716      -3.70718553      -0.63571121       2.74248725       0.00000000
H       11.76210795      12.40914520       9.86200079      -0.14364561       0.26979903      -0.38180815       0.74713457      -1.02621209       1.21787075       0.00000000
H       13.32431790      11.09655472      10.36489954       0.16806101      -0.54641048       0.02329742      -0.83034528       1.50196119       0.12267652       0.00000000
H       12.92406108      12.84521695      11.44408690       0.26860847       0.41371579       0.00263681      -0.80210613      -1.70886612      -0.60463345       0.00000000
H       11.25721343       9.90099107      10.76577292      -0.01255945      -0.38609948      -0.51852116       0.38551917       0.78420566       0.58616516       0.00000000
H       12.20378957      10.15352461      12.51935261       0.07164832      -0.49555985       0.35406603      -0.02669116       0.92019977      -1.44943374       0.00000000
H        9.95654091      10.71677828      12.87263437      -0.20508045      -0.44636421       0.43893730       1.08380751       1.92160703      -1.58486563       0.00000000
9
Lattice="23.296006118037088 0.0 0.0 0.0 22.649327160371357 0.0 0.0 0.0 22.71683509278982" Properties=species:S:1:pos:R:3:momenta:R:3:forces:R:3:magmoms:R:1 Energy:=T 4.1390592=T energy=-37.49293709584982 dipole="0.009294197304114833 -0.28617801967785705 0.0732368592684077" magmom=0.0 free_energy=-37.49293709584982 pbc="T T T"
C       12.39961413      11.83182325      10.76894440      -0.63850537       0.02552391      -1.06493979       2.74689469       1.56893437      -0.72787395       0.00000000
C       11.62685789      10.82741716      11.60550985       0.52249891      -0.18449461       0.17005021      -0.15260089      -3.52222335      -0.64950975       0.00000000
O       10.50038281      11.52101545      12.17646371      -0.56475583       0.08296929      -0.55485475      -2.27278686       0.98722261       1.80928434       0.00000000
H       11.79664558      12.31817970       9.85970502      -0.08993093       0.15441194      -0.58952063      -0.10469872      -0.02771390       0.14934993       0.00000000
H       13.46066920      11.38975453      10.33534525       0.58904456       0.11045003       0.04445277      -0.85800370       0.02600994       0.16292699       0.00000000
H       12.79858117      12.71560561      11.52725607      -0.00259418       0.27938445       0.26771878      -0.51661916      -0.36514452      -0.58880669       0.00000000
H       11.17346193       9.86743784      10.94558470      -0.23642690      -0.51219732      -0.03580902       0.72651546       0.50292339      -0.13983151       0.00000000
H       12.37601350      10.23312639      12.36127442       0.53964820      -0.46247237       0.04553135       0.18397396       0.28655306       0.18834345       0.00000000
H        9.93713494      10.71442496      12.69702359      -0.34942265      -0.68073005       0.06048518       0.22132809       0.55229174      -0.21461358       0.00000000
9
Lattice="23.296006118037088 0.0 0.0 0.0 22.649327160371357 0.0 0.0 0.0 22.71683509278982" Properties=species:S:1:pos:R:3:momenta:R:3:forces:R:3:magmoms:R:1 Energy:=T 4.1390592=T energy=-37.49293709584982 dipole="0.009294197304114833 -0.28617801967785705 0.0732368592684077" magmom=0.0 free_energy=-37.49293709584982 pbc="T T T"
C       12.39727845      11.83209835      10.76441135      -0.50461707       0.10683406      -1.12951700       2.74689469       1.56893437      -0.72787395       0.00000000
C       11.62899228      10.82632411      11.60627132       0.52014891      -0.34621819       0.17720288      -0.15260089      -3.52222335      -0.64950975       0.00000000
O       10.49839602      11.52125538      12.17493348      -0.70756773       0.09094840      -0.45095414      -2.27278686       0.98722261       1.80928434       0.00000000
H       11.79186643      12.32501833       9.83108866      -0.09056326       0.13961397      -0.58722235      -0.10469872      -0.02771390       0.14934993       0.00000000
H       13.48876478      11.39628314      10.33766719       0.57580948       0.13547594       0.04941600      -0.85800370       0.02600994       0.16292699       0.00000000
H       12.79775534      12.72768059      11.53971684      -0.02961717       0.23687965       0.24678616      -0.51661916      -0.36514452      -0.58880669       0.00000000
H       11.16255383       9.84236857      10.94387072      -0.21172257      -0.52585114      -0.03539435       0.72651546       0.50292339      -0.13983151       0.00000000