9
Lattice="23.296006118037088 0.0 0.0 0.0 22.649327160371357 0.0 0.0 0.0 22.71683509278982" Properties=species:S:1:pos:R:3:momenta:R:3:forces:R:3:magmoms:R:1 Energy:=T 4.1390592=T energy=-36.809185419738974 dipole="-0.010133953038097691 -0.3055916969542542 0.08711476240661134" magmom=0.0 free_energy=-36.809185419738974 pbc="T T T"
C       12.42259471      11.82931273      10.78990327       0.12290718      -1.08272672      -1.13133988      -0.21688203      -0.49967431       1.18441592       0.00000000
C       11.61307745      10.83111437      11.59913782       0.11969270       1.50087817       0.04045608      -0.39500522       0.17481714      -0.09121021       0.00000000
O       10.50782950      11.52632965      12.18964517       0.11759182       0.05100943       0.39356408       0.22710089       4.90990684      -1.48103719       0.00000000
H       11.80223379      12.28316880      10.00442604       0.16162563      -0.16097558       0.03665123      -1.86023025       1.36141778      -2.20666220       0.00000000
H       13.27539934      11.33591618      10.30073619      -0.36136967      -0.15823111      -0.25890090       2.50691584      -1.40930635      -1.36417989       0.00000000
H       12.80450102      12.64171371      11.45843428       0.22170901      -0.11383556       0.12871578       0.79468536       1.72751309       1.34522267       0.00000000
H       11.24239243      10.00312549      10.91164823      -0.27651382       0.01937782      -0.32412266      -0.34774742      -1.82309766      -1.52935716       0.00000000
H       12.25259419      10.33794799      12.39451826      -0.10484478      -0.31161543       0.21703044       1.75092282      -1.16353436       1.43115011       0.00000000
H       10.01370471      10.86169500      12.71269401       0.21906017      -0.23044414      -0.02009596      -2.53347876      -3.27605739       2.64266697       0.00000000
9
Lattice="23.296006118037088 0.0 0.0 0.0 22.649327160371357 0.0 0.0 0.0 22.71683509278982" Properties=species:S:1:pos:R:3:momenta:R:3:forces:R:3:magmoms:R:1 Energy:=T 4.1390592=T energy=-36.88336331344545 dipole="-0.008995706616348487 -0.3056567976031384 0.08587582155788875" magmom=0.0 free_energy=-36.88336331344545 pbc="T T T"
C       12.42307550      11.82483524      10.78539611       0.11827583      -1.09684105      -1.05888641       0.02828421      -0.07508988       1.76603618       0.00000000
C       11.61352721      10.83726907      11.59929408       0.10119366       1.48662228       0.03471402      -0.35831318      -0.75534567      -0.14261813       0.00000000
O       10.50820760      11.52685637      12.19074168       0.12087646       0.28679762       0.32844065      -0.09334349       4.69186527      -1.17092072       0.00000000
H       11.80788303      12.27695441      10.00357157       0.06582298      -0.09007946      -0.07576341      -2.04104734       1.52561557      -2.37108942       0.00000000
H       13.26079159      11.32652035      10.28648935      -0.23412160      -0.23035599      -0.32778994       2.67488300      -1.52776474      -1.44112110       0.00000000
H       12.81625434      12.63823418      11.46631534       0.25805504      -0.03657093       0.18663653       0.68539838       1.41885880       1.01342742       0.00000000
H       11.22850358      10.00188832      10.89402591      -0.28811577      -0.05856990      -0.38884715      -0.12470778      -1.35109099      -1.10635509       0.00000000
H       12.24958073      10.32137278      12.40680514      -0.02612335      -0.36270073       0.27663249       1.45477295      -0.91676233       0.99596595       0.00000000
H       10.02134684      10.84654713      12.71487679       0.10055293      -0.38402261       0.10393058      -2.29237592      -2.97796866       2.40794457       0.00000000
9
Lattice="23.296006118037088 0.0 0.0 0.0 22.649327160371357 0.0 0.0 0.0 22.71683509278982" Properties=species:S:1:pos:R:3:momenta:R:3:forces:R:3:magmoms:R:1 Energy:=T 4.1390592=T energy=-37.0397094720948 dipole="-0.007965451144946263 -0.3032577586886378 0.08407902533492713" magmom=0.0 free_energy=-37.0397094720948 pbc="T T T"
C       12.42356198      11.82034267      10.78124361       0.12871244      -1.08870382      -0.96728612       0.39671575       0.40645434       1.96411276       0.00000000
C       11.61390502      10.84327209      11.59942171       0.08527951       1.42394751       0.02767444      -0.28974327      -1.79689766      -0.14404786       0.00000000
O       10.50857163      11.52809046      12.19166165       0.10129115       0.50193881       0.28636022      -0.70421010       4.06911923      -0.54267941       0.00000000
H       11.80864806      12.27439080       9.99704310      -0.03361349      -0.01489636      -0.18982985      -2.00820677       1.53599232      -2.27392640       0.00000000
H       13.25258481      11.31346859      10.26879392      -0.10538635      -0.30415464      -0.39642064       2.56747679      -1.47746531      -1.35365989       0.00000000
H       12.82964781      12.63814997      11.47662152       0.28778702       0.02364272       0.22660224       0.52534819       1.03316292       0.61405708       0.00000000
H       11.21431631       9.99741800      10.87375610      -0.28832161      -0.11286779      -0.43183060       0.11632555      -0.86002904      -0.64401796       0.00000000
H       12.25004853      10.30260376      12.42147536       0.03675184      -0.40021641       0.31342003       1.10563184      -0.61095199       0.50209709       0.00000000
H       10.02350333      10.82427301      12.72282177       0.00067625      -0.51286145       0.20843430      -1.77480468      -2.26860950       1.84765834       0.00000000
9
Lattice="23.296006118037088 0.0 0.0 0.0 22.649327160371357 0.0 0.0 0.0 22.71683509278982" Properties=species:S:1:pos:R:3:momenta:R:3:forces:R:3:magmoms:R:1 Energy:=T 4.1390592=T energy=-37.21165883455378 dipole="-0.007043709614260972 -0.2990452495258051 0.0816661894689193" magmom=0.0 free_energy=-37.21165883455378 pbc="T T T"
C       12.42412812      11.81593173      10.77748556       0.15875525      -1.05667591      -0.87588389       0.82668818       0.89778688       1.75797080       0.00000000
C       11.61422464      10.84891423      11.59952041       0.07290506       1.31024858       0.02123782      -0.21416946      -2.83315283      -0.11806444       0.00000000
O       10.50882948      11.52993805      12.19249981       0.04894294       0.68109367       0.27864950      -1.42751505       3.22642891       0.22868346       0.00000000
H       11.80460748      12.27550280       9.98507315      -0.12640858       0.05706587      -0.29284097      -1.77059693       1.39445516      -1.92089476       0.00000000
H       13.25052197      11.29688128      10.24785920       0.01184198      -0.37174394      -0.45713994       2.20629770      -1.27490778      -1.11895302       0.00000000
H       12.84429843      12.64053811      11.48839713       0.30931774       0.06438538       0.24644423       0.35142633       0.62596081       0.19394916       0.00000000
H       11.20040740       9.99088965      10.85194516      -0.27680417      -0.14414858      -0.45292258       0.35268826      -0.41378818      -0.21489001       0.00000000
H       12.25316210      10.28237274      12.43734710       0.08242087      -0.42242183       0.32567604       0.75410357      -0.29329768      -0.00300749       0.00000000
H       10.02141274      10.79657013      12.73518817      -0.07042539      -0.60149283       0.28179826      -1.12059769      -1.34063961       1.13987031       0.00000000
9
Lattice="23.296006118037088 0.0 0.0 0.0 22.649327160371357 0.0 0.0 0.0 22.71683509278982" Properties=species:S:1:pos:R:3:momenta:R:3:forces:R:3:magmoms:R:1 Energy:=T 4.1390592=T energy=-37.33425802017183 dipole="-0.0062016138499438565 -0.2939505462411495 0.0787635785283017" magmom=0.0 free_energy=-37.33425802017183 pbc="T T T"
C       12.42486029      11.81170109      10.77408056       0.21007535      -1.00112405      -0.80222960       1.26317012       1.36439711       1.24138106       0.00000000
C       11.61450124      10.85398741      11.59959539       0.06403201       1.14828861       0.01637274      -0.14715906      -3.76218477      -0.08005146       0.00000000
O       10.50887211      11.53227208      12.19337244      -0.03781938       0.81801123       0.30838361      -2.10562199       2.34913140       0.98214942       0.00000000
H       11.79632988      12.27995171       9.96850652      -0.20373654       0.11915598      -0.37465364      -1.37835404       1.13397994      -1.41068276       0.00000000
H       13.25373878      11.27724313      10.22424684       0.10709788      -0.42623969      -0.50352362       1.67271543      -0.94426945      -0.76988405       0.00000000
H       12.85979001      12.64442416      11.50063686       0.32210257       0.08573277       0.24614608       0.16919781       0.24334808      -0.20609076       0.00000000
H       11.18734247       9.98337110      10.82961998      -0.25439270      -0.15470646      -0.45383268       0.55995213      -0.01614977       0.17782899       0.00000000
H       12.25808023      10.26143987      12.45321164       0.11139855      -0.42887836       0.31449737       0.42592635       0.03037458      -0.45221066       0.00000000
H       10.01664056      10.76565911      12.75028227      -0.11013047      -0.64399919       0.32068629      -0.49627333      -0.39030534       0.44372911       0.00000000
9
Lattice="23.296006118037088 0.0 0.0 0.0 22.649327160371357 0.0 0.0 0.0 22.71683509278982" Properties=species:S:1:pos:R:3:momenta:R:3:forces:R:3:magmoms:R:1 Energy:=T 4.1390592=T energy=-37.370375437183434 dipole="-0.0053869132970526335 -0.28892097621553 0.07559772222315848" magmom=0.0 free_energy=-37.370375437183434 pbc="T T T"
C       12.42584614      11.80774445      10.77092486       0.28192051      -0.92420817      -0.75846759       1.66250980       1.76777337       0.54069644       0.00000000
C       11.61474830      10.85830503      11.59965430       0.05796997       0.94460693       0.01329001      -0.09969956      -4.53214514      -0.04548353       0.00000000
O       10.50859729      11.53496029      12.19439315      -0.15451971       0.91391122       0.37231846      -2.64665155       1.55611005       1.62140711       0.00000000
H       11.78475389      12.28711423       9.94856414      -0.25972294       0.16683813      -0.42912831      -0.90152559       0.80773336      -0.80763607       0.00000000
H       13.26095838      11.25534534      10.19879215       0.17436070      -0.46274263      -0.53106404       1.06636261      -0.54220392      -0.35161763       0.00000000
H       12.87568647      12.64889254      11.51238342       0.32649041       0.08941113       0.22743206       0.00948391      -0.09355801      -0.55598171       0.00000000
H       11.17561750       9.97581391      10.80772036      -0.22311057      -0.14765804      -0.43713531       0.71391910       0.30317547       0.50212169       0.00000000
H       12.26401760      10.24057968      12.46799404       0.12552351      -0.42032202       0.28324424       0.14927053       0.31805696      -0.82048000       0.00000000
H       10.01068081      10.73381410      12.76643820      -0.12185952      -0.64278936       0.32791891       0.01864270       0.43957185      -0.14920236       0.00000000
9
Lattice="23.296006118037088 0.0 0.0 0.0 22.649327160371357 0.0 0.0 0.0 22.71683509278982" Properties=species:S:1:pos:R:3:momenta:R:3:forces:R:3:magmoms:R:1 Energy:=T 4.1390592=T energy=-36.95710237952966 dipole="-0.006635698134058399 -0.2991474892247139 0.09021855588954376" magmom=0.0 free_energy=-36.95710237952966 pbc="T T T"
C       12.42244094      11.83434374      10.79214681       0.10340752       0.13185269      -0.59627157       0.52039787      -1.14246691       0.63047154       0.00000000
C       11.61761729      10.82613944      11.59919138       1.21529238       0.29276777       0.04175659      -0.99145176       0.52256041      -0.57170371       0.00000000
O       10.50625337      11.53191700      12.18421806      -0.41110085       1.84616471      -1.35688551      -0.39427089       3.89358697      -0.76989640       0.00000000
H       11.80273377      12.28774579      10.00481973       0.17275072      -0.06791266       0.04472180      -1.82506936       1.32579468      -2.20704347       0.00000000
H       13.31188328      11.34681659      10.30251627       0.36624668       0.07636264      -0.21166655       1.64457749      -0.96645752      -0.92845173       0.00000000
H       12.80620144      12.64239096      11.45817643       0.25649320      -0.09657791       0.12697911       0.79000270       1.86425525       1.49000625       0.00000000
H       11.24606856       9.99285783      10.91478454      -0.20013478      -0.18954561      -0.25857439      -0.30985711      -1.74943771      -1.48135177       0.00000000
H       12.24726058      10.35075701      12.38474093      -0.20402398      -0.05660700       0.03007487       2.16983524      -1.48452697       1.98958411       0.00000000
H        9.98098029      10.86835181      12.72990797      -0.43168209      -0.06975548       0.31227493      -1.68277667      -2.29608095       1.79049037       0.00000000
9
Lattice="23.296006118037088 0.0 0.0 0.0 22.649327160371357 0.0 0.0 0.0 22.71683509278982" Properties=species:S:1:pos:R:3:momenta:R:3:forces:R:3:magmoms:R:1 Energy:=T 4.1390592=T energy=-37.10925237646704 dipole="-0.0019463781223697176 -0.2934822279006115 0.0918056657364068" magmom=0.0 free_energy=-37.10925237646704 pbc="T T T"
C       12.42291603      11.83476817      10.78977194       0.14975269       0.07308586      -0.56240655       1.36687140      -1.25063730       0.74858057       0.00000000
C       11.62248712      10.82738905      11.59930472       1.15516745       0.30395348       0.00298570      -1.45695708      -0.06705575      -1.00712566       0.00000000
O       10.50496165      11.53787784      12.17999468      -0.44719705       2.01605397      -1.37709616      -1.07563936       3.02464720      -0.05312211       0.00000000
H       11.80896714      12.28602315      10.00435802       0.07956479       0.00043635      -0.06772150      -1.96965022       1.45751515      -2.37187526       0.00000000
H       13.33169589      11.34938089      10.29109221       0.43391976       0.03524384      -0.24997698       1.11120716      -0.70798333      -0.63162629       0.00000000
H       12.81964397      12.63991590      11.46614611       0.29229415      -0.01001891       0.19491743       0.66788434       1.66060215       1.27657933       0.00000000
H       11.23594652       9.98152928      10.90041342      -0.20892588      -0.26249853      -0.32008414      -0.04813457      -1.22135277      -1.02344979       0.00000000
H       12.23991598      10.34622268      12.38858682      -0.09650180      -0.13028188       0.12881944       2.20868550      -1.51566317       2.03149422       0.00000000
H        9.95793372      10.86220581      12.74726546      -0.49431773      -0.16016563       0.38036704      -0.86787350      -1.38560315       0.98235832       0.00000000
9
Lattice="23.296006118037088 0.0 0.0 0.0 22.649327160371357 0.0 0.0 0.0 22.71683509278982" Properties=species:S:1:pos:R:3:momenta:R:3:forces:R:3:magmoms:R:1 Energy:=T 4.1390592=T energy=-37.26165351933479 dipole="0.0025924112739685234 -0.2863639209677288 0.09267545908028138" magmom=0.0 free_energy=-37.26165351933479 pbc="T T T"
C       12.42366563      11.83494144      10.78754740       0.23501277       0.01572544      -0.52708940       2.10509145      -1.08519482       0.68960531       0.00000000
C       11.62706435      10.82862519      11.59921580       1.07660809       0.28284373      -0.05141458      -1.74213880      -0.79257618      -1.20816377       0.00000000
O       10.50350777      11.54429470      12.17576328      -0.51593002       2.14372466      -1.36313134      -1.72330629       2.17436179       0.62179798       0.00000000
H       11.81048715      12.28778831       9.99822045      -0.01551958       0.07140903      -0.18187501      -1.90237752       1.43263610      -2.27668652       0.00000000
H       13.35416762      11.35025101      10.27815667       0.47450626       0.00683569      -0.27342642       0.54155744      -0.44885391      -0.32328235       0.00000000
H       12.83468473      12.64141464      11.47717062       0.32036106       0.06354231       0.24980681       0.47505701       1.33495955       0.95862723       0.00000000
H       11.22570928       9.96727804      10.88359319      -0.20494755      -0.30926341      -0.35879955       0.21014030      -0.68300773      -0.55311994       0.00000000
H       12.23785674      10.33806138      12.39729404       0.00820572      -0.20210400       0.22396585       2.05521651      -1.40907876       1.84306001       0.00000000
H        9.93281033      10.85274409      12.76697373      -0.51742450      -0.20738724       0.40977545      -0.07308065      -0.53735620       0.21521152       0.00000000
9
Lattice="23.296006118037088 0.0 0.0 0.0 22.649327160371357 0.0 0.0 0.0 22.71683509278982" Properties=species:S:1:pos:R:3:momenta:R:3:forces:R:3:magmoms:R:1 Energy:=T 4.1390592=T energy=-37.37758195123944 dipole="0.006708967140768202 -0.2784331798296529 0.092875092965201" magmom=0.0 free_energy=-37.37758195123944 pbc="T T T"
C       12.42483798      11.83489677      10.78546136       0.35205607      -0.02786804      -0.49905893       2.66114821      -0.69001985       0.45185195       0.00000000
C       11.63129171      10.82970217      11.59888425       0.98801718       0.22477674      -0.10975950      -1.86546229      -1.57202902      -1.16775928       0.00000000
O       10.50179407      11.55103939      12.17162564      -0.61288521       2.23186701      -1.31843568      -2.22490510       1.41497290       1.19829945       0.00000000
H       11.80745480      12.29298177       9.98663478      -0.10250369       0.13753873      -0.28491385      -1.63979150       1.26029896      -1.91926362       0.00000000
H       13.37793528      11.35004701      10.26444752       0.48773647      -0.00937836      -0.28232527      -0.00279668      -0.21141502      -0.03909672       0.00000000
H       12.85086231      12.64610793      11.49048912       0.33809591       0.11952256       0.28737430       0.24714207       0.94466961       0.57119717       0.00000000
H       11.21597492       9.95139237      10.86544935      -0.18914919      -0.33067612      -0.37561727       0.43320092      -0.18896142      -0.13173145       0.00000000
H       12.24071561      10.32652818      12.41041170       0.10153682      -0.26558584       0.30497334       1.74541456      -1.17603029       1.45572906       0.00000000
H        9.90751206      10.84199647      12.78719700      -0.50513731      -0.21657554       0.40435615       0.57343987       0.16318982      -0.43589658       0.00000000
9
Lattice="23.296006118037088 0.0 0.0 0.0 22.649327160371357 0.0 0.0 0.0 22.71683509278982" Properties=species:S:1:pos:R:3:momenta:R:3:forces:R:3:magmoms:R:1 Energy:=T 4.1390592=T energy=-37.433869446215816 dipole="0.010107642864692798 -0.270378196597628 0.09249981270558338" magmom=0.0 free_energy=-37.433869446215816 pbc="T T T"
C       12.42654477      11.83471353      10.78346606       0.49160219      -0.04847933      -0.48594713       3.02145219      -0.14931344       0.08208702       0.00000000
C       11.63514443      10.83046343      11.59831818       0.89626115       0.12915164      -0.16163420      -1.87102873      -2.32201836      -0.94468321       0.00000000
O       10.49974492      11.55799740      12.16766866      -0.73022136       2.28725927      -1.24946846      -2.55326014       0.84071211       1.61018535       0.00000000
H       11.80049844      12.30119110       9.97045634      -0.17314962       0.19293633      -0.36648613      -1.23705354       0.99560340      -1.40252456       0.00000000
H       13.40169625      11.34933711      10.25064482       0.47581577      -0.01466031      -0.27812167      -0.48263833      -0.00367699       0.21027550       0.00000000
H       12.86763129      12.65306180      11.50517449       0.34430707       0.15616334       0.30567737       0.00578893       0.54741716       0.17414077       0.00000000
H       11.20727719       9.93505452      10.84699027      -0.16308065      -0.32970200      -0.37280857       0.62836288       0.22862991       0.24610707       0.00000000
H       12.24775123      10.31218074      12.42701289       0.17750277      -0.31550427       0.36383660       1.34807254      -0.85674912       0.94130202       0.00000000
H        9.88358603      10.83163937      12.80637718      -0.46445840      -0.19592649       0.37082719       1.08308772       0.67768142      -0.92947025       0.00000000
9
Lattice="23.296006118037088 0.0 0.0 0.0 22.649327160371357 0.0 0.0 0.0 22.71683509278982" Properties=species:S:1:pos:R:3:momenta:R:3:forces:R:3:magmoms:R:1 Energy:=T 4.1390592=T energy=-37.42286235126547 dipole="0.012621145678676539 -0.26285956038748226 0.0916554113963275" magmom=0.0 free_energy=-37.42286235126547 pbc="T T T"
C       12.42885835      11.83450030      10.78148724       0.64465953      -0.04128817      -0.49247320       3.21135240       0.44215164      -0.34784162       0.00000000
C       11.63862140      10.83075838      11.59756239       0.80590288      -0.00080696      -0.20009121      -1.80854303      -2.97015853      -0.62136412       0.00000000
O       10.49731082      11.56508217      12.16395444      -0.86016120       2.31841980      -1.16420100      -2.73815307       0.42820766       1.86207800       0.00000000
H       11.79058182      12.31178291       9.95092167      -0.22234595       0.23357189      -0.42043865      -0.76632068       0.65915883      -0.79453127       0.00000000
H       13.42430227      11.34861841      10.23734530       0.44216913      -0.01088382      -0.26262677      -0.88752087       0.15746355       0.42070844       0.00000000
H       12.88441413      12.66132563      11.52027658       0.33896820       0.17377500       0.30491358      -0.22319869       0.16976532      -0.20524393       0.00000000
H       11.20008314       9.91926378      10.82912013      -0.12835607      -0.31052474      -0.35328494       0.78569222       0.55230672       0.54893473       0.00000000
H       12.25801278      10.29578312      12.44586662       0.23307114      -0.34888978       0.39652396       0.91478397      -0.50277643       0.38979339       0.00000000
H        9.86225181      10.82290395      12.82333314      -0.40242959      -0.15333867       0.31610523       1.44285088       1.05658070      -1.29891855       0.00000000
9
Lattice="23.296006118037088 0.0 0.0 0.0 22.649327160371357 0.0 0.0 0.0 22.71683509278982" Properties=species:S:1:pos:R:3:momenta:R:3:forces:R:3:magmoms:R:1 Energy:=T 4.1390592=T energy=-37.354971191166165 dipole="0.01432122474287086 -0.2565922717292116 0.09049864576432028" magmom=0.0 free_energy=-37.354971191166165 pbc="T T T"
C       12.43181699      11.83442679      10.77939987       0.80398022       0.00607663      -0.52878867       3.27510883       0.97956443      -0.74562069       0.00000000
C       11.64174719      10.83041317      11.59671811       0.72197229      -0.16928057      -0.21356702      -1.72895597      -3.45557618      -0.28887918       0.00000000
O       10.49446395      11.57221086      12.16052616      -0.99543532       2.32348947      -1.06738871      -2.77116378       0.05198238       2.01136017       0.00000000
H       11.77941748      12.32351973       9.93023543      -0.23678493       0.24930752      -0.42953559      -0.31148761       0.34296647      -0.20251889       0.00000000
H       13.44442857      11.34841322      10.22524014       0.38408409       0.00243414      -0.23423553      -1.18036637       0.27061405       0.57863756       0.00000000
H       12.90043603      12.66961333      11.53450297       0.31845438       0.16660829       0.27929084      -0.42259379      -0.14201590      -0.51677254       0.00000000
H       11.19490313       9.90505364      10.81282369      -0.08437461      -0.27174421      -0.31509064       0.89340975       0.81050033       0.78902401       0.00000000
H       12.26995210      10.27861105      12.46501962       0.25799549      -0.35655061       0.39034203       0.52752189      -0.16748566      -0.11208216       0.00000000
H        9.84459351      10.81695141      12.83692385      -0.32141673      -0.09002244       0.24095647       1.66961875       1.30908919      -1.54653672       0.00000000
9
Lattice="23.296006118037088 0.0 0.0 0.0 22.649327160371357 0.0 0.0 0.0 22.71683509278982" Properties=species:S:1:pos:R:3:momenta:R:3:forces:R:3:magmoms:R:1 Energy:=T 4.1390592=T energy=-37.252200651692 dipole="0.015239920081783655 -0.25178698959621526 0.08905007399478809" magmom=0.0 free_energy=-37.252200651692 pbc="T T T"
C       12.43543336      11.83455000      10.77716276       0.96399478       0.06541540      -0.57375054       3.24100739       1.43683026      -1.08531774       0.00000000
C       11.64452575      10.82937399      11.59581582       0.63918695      -0.34703187      -0.22017570      -1.64223075      -3.78281664       0.01976039       0.00000000
O       10.49119928      11.57934739      12.15740114      -1.12932767       2.31734181      -0.96710683      -2.68120354      -0.30232738       2.07232066       0.00000000
H       11.76750775      12.33607727       9.90906456      -0.24198522       0.25874939      -0.42638710       0.09972119       0.04152536       0.33073156       0.00000000
H       13.46173026      11.34885561      10.21451966       0.32058340       0.01785665      -0.20304558      -1.40550983       0.35742178       0.69148040       0.00000000
H       12.91544667      12.67756117      11.54749274       0.29329139       0.15348535       0.24757721      -0.60209433      -0.39237666      -0.77467075       0.00000000
H       11.19186105       9.89278302      10.79841538      -0.03875359      -0.22713273      -0.27152566       0.96437053       1.00616903       0.98503018       0.00000000
H       12.28315377      10.26103820      12.48390442       0.27543220      -0.35696418       0.37376419       0.18253588       0.15064454      -0.56300100       0.00000000
H        9.83093060      10.81413150      12.84681371      -0.23587400      -0.02180549       0.16121532       1.81385406       1.46884271      -1.70068414       0.00000000
9
Lattice="23.296006118037088 0.0 0.0 0.0 22.649327160371357 0.0 0.0 0.0 22.71683509278982" Properties=species:S:1:pos:R:3:momenta:R:3:forces:R:3:magmoms:R:1 Energy:=T 4.1390592=T energy=-37.13954233074093 dipole="0.015568833992053766 -0.2486850266993661 0.08738044287535175" magmom=0.0 free_energy=-37.13954233074093 pbc="T T T"
C       12.43970062      11.83496176      10.77470769       1.12051241       0.14456849      -0.63328733       3.13270742       1.78644377      -1.33914061       0.00000000
C       11.64697451      10.82757511      11.59491750       0.56053692      -0.53689063      -0.21297547      -1.56055753      -3.94861606       0.27344728       0.00000000
O       10.48753037      11.58643834      12.15458855      -1.25710084       2.29569152      -0.86586266      -2.52197841      -0.57931654       2.05054694       0.00000000
H       11.75583666      12.34873418       9.88868513      -0.22837712       0.25449490      -0.39881881       0.45442837      -0.21477694       0.79190524       0.00000000
H       13.47566858      11.35015330      10.20545389       0.24795108       0.03661455      -0.16731016      -1.55222525       0.40643790       0.76373825       0.00000000
H       12.92901650      12.68457007      11.55862872       0.26045196       0.12921971       0.20417589      -0.73519343      -0.59576940      -0.99271883       0.00000000
H       11.19112670       9.88292016      10.78636423       0.00948069      -0.17464920      -0.21976152       0.99982692       1.13106679       1.12291005       0.00000000
H       12.29679224      10.24382583      12.50144196       0.27684438      -0.34307491       0.33722590      -0.12502900       0.41495458      -0.92491186       0.00000000
H        9.82160821      10.81482652      12.85263386      -0.14521004       0.05248279       0.07557284       1.87816583       1.55632640      -1.78685098       0.00000000
9
Lattice="23.296006118037088 0.0 0.0 0.0 22.649327160371357 0.0 0.0 0.0 22.71683509278982" Properties=species:S:1:pos:R:3:momenta:R:3:forces:R:3:magmoms:R:1 Energy:=T 4.1390592=T energy=-37.04401026726402 dipole="0.01554151003029515 -0.24739499567466805 0.08556785830259883" magmom=0.0 free_energy=-37.04401026726402 pbc="T T T"
C       12.44459701      11.83573229      10.77198369       1.27002080       0.23801480      -0.70292127       2.95557670       2.01887909      -1.49649454       0.00000000
C       11.64910987      10.82498325      11.59407409       0.48575077      -0.73112823      -0.19493000      -1.48488560      -3.96113194       0.46140089       0.00000000
O       10.48348122      11.59344195      12.15208511      -1.37582100       2.26222916      -0.76720490      -2.31254669      -0.78333814       1.96699654       0.00000000
H       11.74525301      12.36087713       9.87020072      -0.19900429       0.23877939      -0.35077414       0.74169269      -0.42519034       1.16457088       0.00000000
H       13.48589244      11.35242360      10.19821573       0.16998053       0.05704910      -0.12896416      -1.62289341       0.42569820       0.79778843       0.00000000
H       12.94082703      12.69015329      11.56738914       0.22199828       0.09640561       0.15158876      -0.83071832      -0.74048710      -1.14873526       0.00000000
H       11.19278492       9.87576392      10.77700020       0.05870789      -0.11722641      -0.16245858       1.00480401       1.20730525       1.21058166       0.00000000