9
Lattice="23.296006118037088 0.0 0.0 0.0 22.649327160371357 0.0 0.0 0.0 22.71683509278982" Properties=species:S:1:pos:R:3:momenta:R:3:forces:R:3:magmoms:R:1 Energy:=T 4.1390592=T energy=-36.94628466416453 dipole="-0.017320303736755346 -0.3043404750072135 0.08513987056599674" magmom=0.0 free_energy=-36.94628466416453 pbc="T T T"
C       12.42155474      11.83510857      10.79780996      -0.14526209       0.32950614       0.77556977      -0.78046810      -0.71048939       0.09630374       0.00000000
C       11.61701089      10.82378887      11.59613683       1.07653176      -0.28272865      -0.68403902      -0.60305175       0.49606747       0.29211683       0.00000000
O       10.50592428      11.52745171      12.18844321      -0.51424210       0.39235381       0.01535465      -0.22893639       3.92556690      -0.93795550       0.00000000
H       11.78375303      12.28937242       9.99608774      -0.20422131      -0.04331309      -0.11946997      -1.31250576       0.96804409      -1.59529339       0.00000000
H       13.28762124      11.34366186      10.31986695      -0.11348879       0.00425660       0.13531718       2.38637644      -1.26612234      -1.29983081       0.00000000
H       12.77720661      12.63640941      11.46931373      -0.33410858      -0.21109926       0.36132271       0.97264735       2.19993920       1.72468074       0.00000000
H       11.26718635       9.99295037      10.91525159       0.22916874      -0.19400336      -0.25428862      -0.47746566      -2.00830596      -1.69717394       0.00000000
H       12.25433967      10.34378390      12.39824491      -0.06800425      -0.19218477       0.29530182       1.79231119      -1.17758279       1.50387870       0.00000000
H        9.97630030      10.86010570      12.71909729      -0.53073229      -0.24222570       0.09184839      -1.80488213      -2.42753178       1.84956641       0.00000000
9
Lattice="23.296006118037088 0.0 0.0 0.0 22.649327160371357 0.0 0.0 0.0 22.71683509278982" Properties=species:S:1:pos:R:3:momenta:R:3:forces:R:3:magmoms:R:1 Energy:=T 4.1390592=T energy=-37.11057508692605 dipole="-0.022716120733741442 -0.3038181228488903 0.0819225388404933" magmom=0.0 free_energy=-37.11057508692605 pbc="T T T"
C       12.42088239      11.83638459      10.80099097      -0.18957216       0.30083606       0.77140679      -1.02392765      -0.45701449      -0.26582880       0.00000000
C       11.62135232      10.82268259      11.59336910       1.04281480      -0.27494571      -0.66269859      -0.76997124      -0.17913038       0.57690896       0.00000000
O       10.50432841      11.52895207      12.18841964      -0.53975690       0.56276046      -0.01601563      -0.81007762       3.01373657      -0.33950585       0.00000000
H       11.77223221      12.28842031       9.98835797      -0.26164372       0.00004408      -0.18869762      -1.02585090       0.79754764      -1.22379662       0.00000000
H       13.28494693      11.34235435      10.32490486       0.00556148      -0.05737217       0.07108708       2.46159136      -1.24352560      -1.31574859       0.00000000
H       12.76209138      12.62875609      11.48898227      -0.28595076      -0.10130083       0.44565239       0.98843639       2.27127481       1.70939458       0.00000000
H       11.27778101       9.98109488      10.90083105       0.20829803      -0.28414670      -0.33001939      -0.37243193      -1.66251323      -1.38673582       0.00000000
H       12.25317074      10.33301098      12.41443248       0.01341209      -0.24446157       0.35979616       1.52312691      -0.95123399       1.12246117       0.00000000
H        9.94828153      10.84539904      12.72578548      -0.60080011      -0.34054778       0.16385494      -1.04842142      -1.57634221       1.08268557       0.00000000
9
Lattice="23.296006118037088 0.0 0.0 0.0 22.649327160371357 0.0 0.0 0.0 22.71683509278982" Properties=species:S:1:pos:R:3:momenta:R:3:forces:R:3:magmoms:R:1 Energy:=T 4.1390592=T energy=-37.28512496584967 dipole="-0.027037053567003273 -0.3016191104900151 0.07841538369909197" magmom=0.0 free_energy=-37.28512496584967 pbc="T T T"
C       12.42000441      11.83756883      10.80411859      -0.23908843       0.28795244       0.74914771      -0.99247511      -0.06763264      -0.64060594       0.00000000
C       11.62553912      10.82154034      11.59071723       1.00187681      -0.30421451      -0.62764371      -0.89710646      -1.01275464       0.85059654       0.00000000
O       10.50261041      11.53090681      12.18834488      -0.59445682       0.68811645      -0.01829204      -1.41741409       2.09101288       0.24680607       0.00000000
H       11.75825654      12.28937672       9.97769966      -0.30328011       0.03418219      -0.23794203      -0.66966724       0.59262529      -0.78153525       0.00000000
H       13.28816319      11.33807109      10.32679420       0.12248202      -0.11470099       0.00922867       2.29964938      -1.09102013      -1.20325119       0.00000000
H       12.74934146      12.62653791      11.51274138      -0.23895697       0.00628766       0.52427374       0.92524575       2.10994612       1.49222565       0.00000000
H       11.28748445       9.96526102      10.88309207       0.19351122      -0.35490138      -0.38852408      -0.22971674      -1.21876028      -0.99569378       0.00000000
H       12.25564664      10.31996177      12.43330610       0.08007204      -0.28450323       0.40339060       1.19140111      -0.67934340       0.65279265       0.00000000
H        9.91775391      10.82692022      12.73506452      -0.63312952      -0.39735970       0.19890768      -0.26809731      -0.73715415       0.34473313       0.00000000
9
Lattice="23.296006118037088 0.0 0.0 0.0 22.649327160371357 0.0 0.0 0.0 22.71683509278982" Properties=species:S:1:pos:R:3:momenta:R:3:forces:R:3:magmoms:R:1 Energy:=T 4.1390592=T energy=-37.41850998113997 dipole="-0.03013216541468692 -0.2982318882994706 0.07477664448452696" magmom=0.0 free_energy=-37.41850998113997 pbc="T T T"
C       12.41892711      11.83873949      10.80711756      -0.28097655       0.29591894       0.70950720      -0.71329368       0.39204483      -0.97363596       0.00000000
C       11.62954575      10.82019470      11.58823618       0.95518859      -0.37547376      -0.57976364      -1.00413240      -1.88906598       1.09917676       0.00000000
O       10.50067870      11.53317681      12.18830733      -0.67676218       0.77047322       0.00551961      -1.93422634       1.26272175       0.72285223       0.00000000
H       11.74267836      12.29175127       9.96517114      -0.32672468       0.05807162      -0.26532055      -0.28504308       0.38020048      -0.33337362       0.00000000
H       13.29688248      11.33117704      10.32580417       0.22630961      -0.16168813      -0.04450515       1.92842029      -0.82239130      -0.98489837       0.00000000
H       12.73880565      12.62936881      11.54007137      -0.19689949       0.10171450       0.58803987       0.78741990       1.77602786       1.10446048       0.00000000
H       11.29663817       9.94651068      10.86297041       0.18568084      -0.40253606      -0.42709801      -0.08915232      -0.72102010      -0.57511444       0.00000000
H       12.26097355      10.30528689      12.45374184       0.13005058      -0.31065907       0.42328829       0.84382627      -0.38577535       0.15748169       0.00000000
H        9.88658473      10.80667739      12.74516851      -0.62920427      -0.41530342       0.20046922       0.42794148       0.00644945      -0.28114413       0.00000000
9
Lattice="23.296006118037088 0.0 0.0 0.0 22.649327160371357 0.0 0.0 0.0 22.71683509278982" Properties=species:S:1:pos:R:3:momenta:R:3:forces:R:3:magmoms:R:1 Energy:=T 4.1390592=T energy=-37.478779424578185 dipole="-0.03213903751406124 -0.29423933391804047 0.07119239982900337" magmom=0.0 free_energy=-37.478779424578185 pbc="T T T"
C       12.41770656      11.83998888      10.80992100      -0.30497648       0.32663357       0.65530737      -0.26403212       0.85871716      -1.23349053       0.00000000
C       11.63335073      10.81846968      11.58597588       0.90351888      -0.48818362      -0.52049637      -1.09996282      -2.70070742       1.31430652       0.00000000
O       10.49845538      11.53563719      12.18837877      -0.78104618       0.81543404       0.04924012      -2.31242943       0.56817357       1.05753531       0.00000000
H       11.72641807      12.29503564       9.95184487      -0.33215573       0.07188098      -0.27161280       0.06387988       0.18214471       0.07714086       0.00000000
H       13.31021647      11.32231501      10.32245729       0.30863942      -0.19369897      -0.08581512       1.42421606      -0.48115491      -0.69732738       0.00000000
H       12.73015412      12.63644972      11.57004432      -0.16263933       0.17793676       0.63026973       0.60772324       1.32789659       0.61522459       0.00000000
H       11.30557856       9.92603494      10.84147250       0.18431216      -0.42648389      -0.44481809       0.03341677      -0.25418416      -0.14648334       0.00000000
H       12.26831973      10.28968886      12.47455443       0.16344481      -0.32278163       0.41970924       0.51605410      -0.10788012      -0.30322811       0.00000000
H        9.85643961      10.78644999      12.75459972      -0.59483579      -0.40102176       0.17530056       0.97161234       0.57512878      -0.74377461       0.00000000
9
Lattice="23.296006118037088 0.0 0.0 0.0 22.649327160371357 0.0 0.0 0.0 22.71683509278982" Properties=species:S:1:pos:R:3:momenta:R:3:forces:R:3:magmoms:R:1 Energy:=T 4.1390592=T energy=-37.45862381115384 dipole="-0.03333053555344489 -0.2902386655638347 0.06780155180803092" magmom=0.0 free_energy=-37.45862381115384 pbc="T T T"
C       12.41643298      11.84141073      10.81247672      -0.30510642       0.37918057       0.59030733       0.25874070       1.28110276      -1.41344288       0.00000000
C       11.63693480      10.81620229      11.58397952       0.84731887      -0.63742813      -0.45172590      -1.18861526      -3.37683082       1.48616613       0.00000000
O       10.49588342      11.53818322      12.18860964      -0.90041809       0.82939815       0.10624383      -2.54863614       0.00047327       1.26377122       0.00000000
H       11.71031066      12.29875588       9.93870319      -0.32149366       0.07642984      -0.25874301       0.37030101       0.00309428       0.44694298       0.00000000
H       13.32695858      11.31230158      10.31744171       0.36489454      -0.20833895      -0.11242990       0.86660641      -0.11501455      -0.38648014       0.00000000
H       12.72295687      12.64670828      11.60148950      -0.13725571       0.23122083       0.64737397       0.42594917       0.84193869       0.08129457       0.00000000
H       11.31459891       9.90495094      10.81962405       0.18826446      -0.42873773      -0.44280640       0.12752880       0.16240302       0.22840337       0.00000000
H       12.27690082      10.27383267      12.49464140       0.18169450      -0.32198579       0.39477746       0.22711045       0.14028862      -0.71204421       0.00000000
H        9.82861955      10.76759887      12.76225109      -0.53700701      -0.36203419       0.13081777       1.38329244       1.01252395      -1.06765449       0.00000000
9
Lattice="23.296006118037088 0.0 0.0 0.0 22.649327160371357 0.0 0.0 0.0 22.71683509278982" Properties=species:S:1:pos:R:3:momenta:R:3:forces:R:3:magmoms:R:1 Energy:=T 4.1390592=T energy=-37.371157379129016 dipole="-0.033979147626224226 -0.2868812066328404 0.06472459557916582" magmom=0.0 free_energy=-37.371157379129016 pbc="T T T"
C       12.41525722      11.84312142      10.81474134      -0.26902665       0.45804209       0.51667593       0.75386655       1.61595130      -1.51283227       0.00000000
C       11.64027367      10.81321158      11.58229379       0.78518230      -0.82636817      -0.37254542      -1.27698703      -3.86740443       1.61706099       0.00000000
O       10.49292395      11.54070067      12.18903356      -1.02934385       0.80893590       0.17160252      -2.65838369      -0.45353510       1.36452135       0.00000000
H       11.69534955      12.30231855       9.92696608      -0.29132473       0.06990194      -0.22249980       0.64077966      -0.13103727       0.74893599       0.00000000
H       13.34516707      11.30241915      10.31183706       0.38236650      -0.19748890      -0.11732342       0.35254804       0.21734347      -0.09342088       0.00000000
H       12.71660339      12.65847763      11.63253647      -0.12375256       0.25109667       0.62663227       0.27062957       0.38864140      -0.43053751       0.00000000
H       11.32397804       9.88462317      10.79866651       0.19737160      -0.40456635      -0.41640549       0.19852897       0.51467710       0.55891231       0.00000000
H       12.28576956      10.25854052      12.51266277       0.18169815      -0.30509060       0.34454529      -0.01315268       0.35688329      -1.03122399       0.00000000
H        9.80436272      10.75145553      12.76718755      -0.45707650      -0.29889841       0.07010509       1.66015850       1.32044597      -1.27095224       0.00000000
9
Lattice="23.296006118037088 0.0 0.0 0.0 22.649327160371357 0.0 0.0 0.0 22.71683509278982" Properties=species:S:1:pos:R:3:momenta:R:3:forces:R:3:magmoms:R:1 Energy:=T 4.1390592=T energy=-37.24238796672435 dipole="-0.034257492775840365 -0.2844197056127915 0.06197339929396147" magmom=0.0 free_energy=-37.24238796672435 pbc="T T T"
C       12.41423286      11.84515663      10.81670214      -0.22122726       0.54336829       0.44170335       1.19262148       1.85870417      -1.54020306       0.00000000
C       11.64335609      10.80944419      11.58093281       0.72058881      -1.02414445      -0.29094330      -1.35339026      -4.18644579       1.70594256       0.00000000
O       10.48956369      11.54314974      12.18966321      -1.16005935       0.77756291       0.23921213      -2.66461619      -0.82403661       1.38867885       0.00000000
H       11.68192183      12.30556764       9.91702117      -0.25475284       0.06117983      -0.18009332       0.84850172      -0.22414438       0.97794157       0.00000000
H       13.36421919      11.29305681      10.30600885       0.38788190      -0.17938793      -0.11552551      -0.12794959       0.51976458       0.16663510       0.00000000
H       12.71089751      12.67117699      11.66255316      -0.11380097       0.26095628       0.59452515       0.13461915       0.01286167      -0.87692949       0.00000000
H       11.33383225       9.86552702      10.77904643       0.20821639      -0.37222822      -0.38232997       0.24309294       0.80219714       0.82871211       0.00000000
H       12.29460683      10.24410240      12.52821643       0.17634414      -0.28350995       0.28740834      -0.20487334       0.52192407      -1.29550815       0.00000000
H        9.78407864      10.73847201      12.76908264      -0.37080926      -0.22910912       0.00460709       1.85281782       1.52151490      -1.39625853       0.00000000
9
Lattice="23.296006118037088 0.0 0.0 0.0 22.649327160371357 0.0 0.0 0.0 22.71683509278982" Properties=species:S:1:pos:R:3:momenta:R:3:forces:R:3:magmoms:R:1 Energy:=T 4.1390592=T energy=-37.101410242164064 dipole="-0.03427349946050548 -0.28312908300621525 0.05954772755188546" magmom=0.0 free_energy=-37.101410242164064 pbc="T T T"
C       12.41344801      11.84756513      10.81835362      -0.15402098       0.63816719       0.36693777       1.54415422       2.00169887      -1.50440242       0.00000000
C       11.64616671      10.80483604      11.57991443       0.65278159      -1.23357793      -0.20608527      -1.40785698      -4.34210926       1.74964808       0.00000000
O       10.48580169      11.54547457      12.19050222      -1.28881403       0.72964932       0.30651111      -2.57853486      -1.12710165       1.35187180       0.00000000
H       11.67052456      12.30828036       9.90941646      -0.20953678       0.04840938      -0.12820201       0.99278738      -0.29589426       1.13517732       0.00000000
H       13.38296514      11.28493826      10.30057940       0.37176026      -0.14749609      -0.10209168      -0.52855624       0.77893590       0.38041774       0.00000000
H       12.70551378      12.68390713      11.69047138      -0.10961463       0.25332627       0.54201869       0.03585717      -0.32357090      -1.26123973       0.00000000
H       11.34426818       9.84835051      10.76140946       0.22031626      -0.32737267      -0.33665600       0.24963827       1.02441140       1.03122434       0.00000000
H       12.30295383      10.23091323      12.54066995       0.16240788      -0.25487166       0.21913118      -0.36263953       0.64428524      -1.48487591       0.00000000
H        9.76822834      10.72912945      12.76763650      -0.27719218      -0.15154974      -0.06532895       1.95945891       1.63686025      -1.45167843       0.00000000
9
Lattice="23.296006118037088 0.0 0.0 0.0 22.649327160371357 0.0 0.0 0.0 22.71683509278982" Properties=species:S:1:pos:R:3:momenta:R:3:forces:R:3:magmoms:R:1 Energy:=T 4.1390592=T energy=-36.977015734380245 dipole="-0.03405940810563702 -0.2831662421982264 0.057426245755296236" magmom=0.0 free_energy=-36.977015734380245 pbc="T T T"
C       12.41297326      11.85037562      10.81970298      -0.07191798       0.73758860       0.29529982       1.79924577       2.04694176      -1.41283986       0.00000000
C       11.64869459      10.79935588      11.57924743       0.58290098      -1.44706242      -0.12006380      -1.43782273      -4.35141091       1.75332025       0.00000000
O       10.48165093      11.54762947      12.19154506      -1.41132622       0.66830597       0.37085003      -2.41040920      -1.37092368       1.26813897       0.00000000
H       11.66150302      12.31028501       9.90452822      -0.15829156       0.03271588      -0.06986386       1.09402195      -0.34317683       1.24047011       0.00000000
H       13.40044625      11.27868370      10.29606029       0.33797670      -0.10421568      -0.07923783      -0.84717862       0.98352975       0.55023728       0.00000000
H       12.70021586      12.69586297      11.71537146      -0.10968707       0.23076484       0.47267283      -0.03880714      -0.59517640      -1.56266374       0.00000000
H       11.35530149       9.83362541      10.74624019       0.23227486      -0.27305223      -0.28223275       0.23734012       1.18762697       1.18500023       0.00000000
H       12.31043305      10.21926582      12.54957019       0.14169355      -0.22074537       0.14313498      -0.48088968       0.74540611      -1.60984284       0.00000000
H        9.75706700      10.72370389      12.76271651      -0.18016787      -0.06970395      -0.13682458       1.99156745       1.69606589      -1.45976841       0.00000000
9
Lattice="23.296006118037088 0.0 0.0 0.0 22.649327160371357 0.0 0.0 0.0 22.71683509278982" Properties=species:S:1:pos:R:3:momenta:R:3:forces:R:3:magmoms:R:1 Energy:=T 4.1390592=T energy=-36.891115398737455 dipole="-0.03362012465770103 -0.2846019792801316 0.05557929023775056" magmom=0.0 free_energy=-36.891115398737455 pbc="T T T"
C       12.41285986      11.85359719      10.82076861       0.02050501       0.83692619       0.22938440       1.96440564       1.99828594      -1.27136935       0.00000000
C       11.65093372      10.79300185      11.57893254       0.51211720      -1.65746876      -0.03482529      -1.44463604      -4.21676063       1.71776419       0.00000000
O       10.47713676      11.54957768      12.19277908      -1.52381333       0.59630684       0.42995208      -2.17029331      -1.56102648       1.13861641       0.00000000
H       11.65509946      12.31146844       9.90260841      -0.10303156       0.01545144      -0.00767709       1.15627666      -0.35986630       1.29190105       0.00000000
H       13.41590008      11.27478272      10.29285789       0.29028373      -0.05200056      -0.04908044      -1.09497563       1.14277559       0.67783257       0.00000000
H       12.69482506      12.70639455      11.73653210      -0.11279859       0.19687630       0.39042962      -0.08790025      -0.78483333      -1.78644625       0.00000000
H       11.36690275       9.82174229      10.73390662       0.24324321      -0.21231146      -0.22143898       0.20931345       1.28585990       1.29064534       0.00000000
H       12.31676150      10.20940217      12.55461808       0.11601443      -0.18262852       0.06253865      -0.56481597       0.80678911      -1.67220267       0.00000000
H        9.75067145      10.72233699      12.75430331      -0.08309289       0.01344278      -0.20738494       1.96152189       1.68983706      -1.41359209       0.00000000
9
Lattice="23.296006118037088 0.0 0.0 0.0 22.649327160371357 0.0 0.0 0.0 22.71683509278982" Properties=species:S:1:pos:R:3:momenta:R:3:forces:R:3:magmoms:R:1 Energy:=T 4.1390592=T energy=-36.85859514975565 dipole="-0.032941609174994564 -0.2874346796223265 0.05397182490268015" magmom=0.0 free_energy=-36.85859514975565 pbc="T T T"
C       12.41314096      11.85722007      10.82157891       0.11914445       0.93176002       0.17157099       2.05239171       1.86353933      -1.08290947       0.00000000
C       11.65288273      10.78580097      11.57896263       0.44135901      -1.85780436       0.04760004      -1.43678080      -3.94131056       1.63876214       0.00000000
O       10.47229537      11.55129054      12.19418478      -1.62290022       0.51636032       0.48157635      -1.86472546      -1.69455746       0.96362802       0.00000000
H       11.65146286      12.31179071       9.90378011      -0.04585183      -0.00204482       0.05573176       1.17219790      -0.35261656       1.29023564       0.00000000
H       13.42873364      11.27361639      10.29127753       0.23251699       0.00685098      -0.01375401      -1.25740302       1.25377831       0.76073117       0.00000000
H       12.68922393      12.71504804      11.75341780      -0.11790159       0.15479534       0.29875159      -0.11990418      -0.92878875      -1.94686851       0.00000000
H       11.37900490       9.81293622      10.72466155       0.25268767      -0.14780107      -0.15658070       0.17528403       1.34113384       1.35051463       0.00000000
H       12.32173835      10.20146915      12.55566441       0.08709170      -0.14215786      -0.01992120      -0.61297609       0.84125817      -1.68572923       0.00000000
H        9.74896981      10.72501385      12.74250739       0.01098089       0.09479130      -0.27442362       1.86935283       1.62283893      -1.31635883       0.00000000
9
Lattice="23.296006118037088 0.0 0.0 0.0 22.649327160371357 0.0 0.0 0.0 22.71683509278982" Properties=species:S:1:pos:R:3:momenta:R:3:forces:R:3:magmoms:R:1 Energy:=T 4.1390592=T energy=-36.88414559216182 dipole="-0.032018435457008845 -0.2916151495606908 0.05255845644714173" magmom=0.0 free_energy=-36.88414559216182 pbc="T T T"
C       12.41383423      11.86121720      10.82217173       0.22058518       1.01823461       0.12414747       2.07848018       1.65788102      -0.84827221       0.00000000
C       11.65454319      10.77780857      11.57932182       0.37125909      -2.04158942       0.12505045      -1.41782965      -3.54278843       1.51517508       0.00000000
O       10.46717285      11.55274791      12.19573575      -1.70571782       0.43152169       0.52340504      -1.50777447      -1.76024296       0.73972107       0.00000000
H       11.65063132      12.31126918       9.90803932       0.01100927      -0.01864781       0.11785466       1.14330083      -0.32349096       1.23953454       0.00000000
H       13.43855825      11.27545033      10.29151759       0.16832531       0.07005050       0.02463237      -1.35661202       1.31983402       0.80243994       0.00000000
H       12.68333586      12.72147895      11.76564466      -0.12421346       0.10723497       0.20068173      -0.13712800      -1.00796551      -2.04673442       0.00000000
H       11.39152650       9.80733947      10.71864824       0.25984941      -0.08185304      -0.08982904       0.11635647       1.34440306       1.36774826       0.00000000
H       12.32524835      10.19554926      12.55267681       0.05655215      -0.10082149      -0.10169755      -0.63065624       0.84204231      -1.64436942       0.00000000
H        9.75174151      10.73157415      12.72756145       0.09879721       0.17108248      -0.33552948       1.70670523       1.48389234      -1.17199533       0.00000000
9
Lattice="23.296006118037088 0.0 0.0 0.0 22.649327160371357 0.0 0.0 0.0 22.71683509278982" Properties=species:S:1:pos:R:3:momenta:R:3:forces:R:3:magmoms:R:1 Energy:=T 4.1390592=T energy=-36.960946952474664 dipole="-0.030870572778697866 -0.2969672495983552 0.051261841730092246" magmom=0.0 free_energy=-36.960946952474664 pbc="T T T"
C       12.41493875      11.86552253      10.82262265       0.32060494       1.08727125       0.09616305       2.05594457       1.39988613      -0.57464807       0.00000000
C       11.65592226      10.76915491      11.57996931       0.30318854      -2.19116750       0.19190256      -1.38745054      -3.04854239       1.36643020       0.00000000
O       10.46185266      11.55393991      12.19737790      -1.75985137       0.34539703       0.54627619      -1.09003586      -1.74706317       0.46165542       0.00000000
H       11.65244825      12.31003661       9.91514198       0.06358770      -0.03197836       0.17377983       1.07088060      -0.27207445       1.14044651       0.00000000
H       13.44511645      11.28046025      10.29367519       0.10019051       0.13589223       0.06416869      -1.40121928       1.34664456       0.80981408       0.00000000
H       12.67712621      12.72549175      11.77294672      -0.13086936       0.05668908       0.09858621      -0.13939709      -1.04529652      -2.08824716       0.00000000
H       11.40425407       9.80489344      10.71587138       0.26208220      -0.01815834      -0.02386159       0.03514319       1.30487937       1.34914131       0.00000000
H       12.32727219      10.19160222      12.54587355       0.02635430      -0.06100037      -0.17770660      -0.61827001       0.81477568      -1.55057860       0.00000000
H        9.75834393      10.74146945      12.71003048       0.17120830       0.23395015      -0.38358032       1.45381806       1.25668201      -0.96822932       0.00000000
9
Lattice="23.296006118037088 0.0 0.0 0.0 22.649327160371357 0.0 0.0 0.0 22.71683509278982" Properties=species:S:1:pos:R:3:momenta:R:3:forces:R:3:magmoms:R:1 Energy:=T 4.1390592=T energy=-37.076749715157355 dipole="-0.029536142793440103 -0.3034293036343246 0.05001752378519749" magmom=0.0 free_energy=-37.076749715157355 pbc="T T T"
C       12.41645616      11.87010899      10.82295816       0.41999474       1.14846704       0.07560762       1.99140883       1.09213017      -0.26241043       0.00000000
C       11.65702269      10.75988902      11.58089121       0.23558879      -2.32616816       0.25478294      -1.36534800      -2.44895760       1.19418600       0.00000000
O       10.45636812      11.55486850      12.19908965      -1.80063447       0.26236409       0.56046913      -0.57073478      -1.63420613       0.11631008       0.00000000
H       11.65682778      12.30815297       9.92497371       0.11325837      -0.04360281       0.22615795       0.95180941      -0.20129647       0.99249624       0.00000000
H       13.44832155      11.28869267      10.29777066       0.03188396       0.20166589       0.10329546      -1.38036144       1.33179202       0.78350724       0.00000000
H       12.67058299      12.72700315      11.77525162      -0.13740123       0.00554183      -0.00345073      -0.12659399      -1.03752277      -2.06690347       0.00000000
H       11.41706572       9.80556998      10.71632299       0.26183154       0.04369185       0.04094888      -0.04535055       1.21378582       1.29007195       0.00000000
H       12.32781651      10.18960493      12.53535977      -0.00279866      -0.02244904      -0.25018345      -0.56889741       0.75511253      -1.40082566       0.00000000
H        9.76842531      10.75437198      12.69018255       0.23426709       0.28732273      -0.42490230       1.11406332       0.91675713      -0.71448525       0.00000000
9
Lattice="23.296006118037088 0.0 0.0 0.0 22.649327160371357 0.0 0.0 0.0 22.71683509278982" Properties=species:S:1:pos:R:3:momenta:R:3:forces:R:3:magmoms:R:1 Energy:=T 4.1390592=T energy=-37.20856072955801 dipole="-0.02807320587144609 -0.3108021268078391 0.04870034957361988" magmom=0.0 free_energy=-37.20856072955801 pbc="T T T"
C       12.41837350      11.87491479      10.82324097       0.51515842       1.19292233       0.07111685       1.88384899       0.71817929       0.07953712       0.00000000
C       11.65784893      10.75013131      11.58205294       0.16882525      -2.42898158       0.30867051      -1.35339854      -1.73781293       1.00022486       0.00000000
O       10.45079754      11.55555071      12.20081894      -1.81335448       0.18817222       0.55609403       0.05275023      -1.38703700      -0.29447313       0.00000000
H       11.66348498      12.30578763       9.93718048       0.15609266      -0.05120401       0.26993900       0.79248967      -0.10823982       0.79035690       0.00000000
H       13.44822346      11.30011206      10.30374106      -0.03399022       0.26619333       0.14043319      -1.30216846       1.29589592       0.72881602       0.00000000
H       12.66373683      12.72603178      11.77261045      -0.14287618      -0.04409573      -0.10301019      -0.09635709      -0.98381918      -1.98735929       0.00000000
H       11.42976886       9.80915110      10.71986174       0.25752201       0.09993839       0.10163979      -0.13014195       1.07668673       1.18138479       0.00000000