9
Lattice="23.296006118037088 0.0 0.0 0.0 22.649327160371357 0.0 0.0 0.0 22.71683509278982" Properties=species:S:1:pos:R:3:momenta:R:3:forces:R:3:magmoms:R:1 Energy:=T 4.1390592=T energy=-36.91329268651437 dipole="-0.0015216560219913407 -0.30287018996212384 0.09173685905485744" magmom=0.0 free_energy=-36.91329268651437 pbc="T T T"
C       12.41635707      11.83577777      10.79293924      -1.40523771       0.48514857      -0.41560117      -0.32655508      -1.03688033       0.09604726       0.00000000
C       11.61404798      10.82487435      11.59695792       0.34997221      -0.00952266      -0.49236270      -0.68293102       0.81140393      -0.07945807       0.00000000
O       10.50621763      11.53153877      12.19043828      -0.42020562       1.72448526       0.66444710      -0.29104239       3.95592806      -0.97103304       0.00000000
H       11.78508347      12.29655230       9.99819160      -0.18018503       0.10656843      -0.08010358      -1.44564737       1.07076227      -1.75056774       0.00000000
H       13.29656731      11.35081174      10.31256308       0.06140974       0.15362219      -0.01154758       2.03169526      -1.15933766      -1.17607359       0.00000000
H       12.79976597      12.63040931      11.45639728       0.12810153      -0.33400296       0.09742190       0.94023586       2.20978800       1.77334758       0.00000000
H       11.24969487       9.99667678      10.92422029      -0.13006164      -0.11908026      -0.07168015      -0.48710985      -2.07172590      -1.75679489       0.00000000
H       12.25276470      10.35137469      12.38528403      -0.09449953      -0.04101028       0.03676716       2.02968852      -1.36563648       1.80819839       0.00000000
H       10.00190722      10.86234513      12.74062849      -0.00559634      -0.19674911       0.53690598      -1.82189714      -2.44729023       1.97797508       0.00000000
9
Lattice="23.296006118037088 0.0 0.0 0.0 22.649327160371357 0.0 0.0 0.0 22.71683509278982" Properties=species:S:1:pos:R:3:momenta:R:3:forces:R:3:magmoms:R:1 Energy:=T 4.1390592=T energy=-37.066723694713886 dipole="0.008111351605379532 -0.3008034944563134 0.09460017065714975" magmom=0.0 free_energy=-37.066723694713886 pbc="T T T"
C       12.41057821      11.83765745      10.79124948      -1.41768976       0.43403388      -0.41995501      -0.18051748      -1.04461328      -0.27334438       0.00000000
C       11.61541046      10.82491689      11.59493665       0.31104291       0.02059458      -0.49708809      -0.90234869       0.41503090      -0.11296932       0.00000000
O       10.50490575      11.53713078      12.19240478      -0.44904095       1.89652177       0.63259698      -0.88319027       3.04974642      -0.32596866       0.00000000
H       11.77457448      12.30302587       9.99219412      -0.24671913       0.15694300      -0.16026351      -1.26375570       0.98059219      -1.51370680       0.00000000
H       13.30199034      11.35690963      10.31059328       0.15513763       0.09907735      -0.06730449       1.78509423      -1.06183876      -1.09446077       0.00000000
H       12.80713254      12.61677945      11.46326583       0.17406533      -0.22367334       0.18521624       0.93150296       2.28305745       1.80181539       0.00000000
H       11.24277496       9.98839594      10.91862577      -0.15107987      -0.21369936      -0.15202312      -0.36879501      -1.78135544      -1.51493368       0.00000000
H       12.25058885      10.34774254      12.38923896       0.00327895      -0.10631167       0.12267670       1.95204874      -1.29356795       1.69021183       0.00000000
H        9.99945465      10.84983062      12.76915517      -0.07778232      -0.29570556       0.61692030      -1.11766197      -1.58241658       1.28036995       0.00000000
9
Lattice="23.296006118037088 0.0 0.0 0.0 22.649327160371357 0.0 0.0 0.0 22.71683509278982" Properties=species:S:1:pos:R:3:momenta:R:3:forces:R:3:magmoms:R:1 Energy:=T 4.1390592=T energy=-37.25422508305399 dipole="0.017512603431952264 -0.29702805611172706 0.09660712962457108" magmom=0.0 free_energy=-37.25422508305399 pbc="T T T"
C       12.40476309      11.83932734      10.78950481      -1.41885724       0.38857272      -0.44276581       0.13297528      -0.80665726      -0.65555771       0.00000000
C       11.61659172      10.82504278      11.59289269       0.26342788       0.02569527      -0.50129460      -1.03663171      -0.20732058      -0.05832849       0.00000000
O       10.50346072      11.54318260      12.19432215      -0.50656319       2.02363060       0.63410972      -1.45923195       2.12638245       0.38757086       0.00000000
H       11.76104134      12.31184598       9.98257435      -0.30179001       0.20088233      -0.22572672      -0.97884172       0.80870614      -1.15208728       0.00000000
H       13.31168507      11.36046656      10.30600444       0.23308291       0.05139743      -0.11716185       1.38899503      -0.87978377      -0.93583152       0.00000000
H       12.81672818      12.60861293      11.47444611       0.21687126      -0.11514723       0.26939888       0.81164126       2.13634510       1.62627226       0.00000000
H       11.23497253       9.97585234      10.90940603      -0.16495559      -0.29128752      -0.21796113      -0.19625217      -1.37819108      -1.17019540       0.00000000
H       12.25308423      10.34101490      12.39723855       0.09362711      -0.16555502       0.19853328       1.72711118      -1.11894114       1.39882138       0.00000000
H        9.99432753      10.83352940      12.80074575      -0.11565896      -0.35197843       0.66123986      -0.42475117      -0.70912878       0.52441220       0.00000000
9
Lattice="23.296006118037088 0.0 0.0 0.0 22.649327160371357 0.0 0.0 0.0 22.71683509278982" Properties=species:S:1:pos:R:3:momenta:R:3:forces:R:3:magmoms:R:1 Energy:=T 4.1390592=T energy=-37.41752862469007 dipole="0.026468733472862268 -0.292068256523769 0.09794181098304958" magmom=0.0 free_energy=-37.41752862469007 pbc="T T T"
C       12.39897467      11.84083523      10.78762850      -1.40128769       0.35931616      -0.48318656       0.58249236      -0.38472877      -0.99045694       0.00000000
C       11.61756479      10.82512703      11.59083702       0.21086425      -0.00258447      -0.50071962      -1.10386573      -0.94428743       0.08174290       0.00000000
O       10.50179568      11.54955500      12.19629794      -0.58934081       2.10733635       0.66885467      -1.91163998       1.28228495       1.02731368       0.00000000
H       11.74516584      12.32260132       9.97019764      -0.34126545       0.23546224      -0.27181618      -0.62867830       0.59945798      -0.72476885       0.00000000
H       13.32470365      11.36191818      10.29917616       0.28939213       0.01375757      -0.15790322       0.90403037      -0.65298745      -0.72323945       0.00000000
H       12.82826607      12.60555866      11.48951805       0.25160118      -0.01823587       0.34111452       0.60263118       1.81008140       1.29413364       0.00000000
H       11.22670047       9.96001074      10.89738603      -0.16996463      -0.34730875      -0.26563282      -0.00772634      -0.90310677      -0.77109230       0.00000000
H       12.25971257      10.33160964      12.40858551       0.17033266      -0.21428900       0.25703567       1.39649377      -0.86560530       0.98351421       0.00000000
H        9.98818399      10.81553125      12.83359125      -0.12235268      -0.36758314       0.66991876       0.15216928       0.07367361      -0.17098980       0.00000000
9
Lattice="23.296006118037088 0.0 0.0 0.0 22.649327160371357 0.0 0.0 0.0 22.71683509278982" Properties=species:S:1:pos:R:3:momenta:R:3:forces:R:3:magmoms:R:1 Energy:=T 4.1390592=T energy=-37.5144933835416 dipole="0.034687182303681674 -0.28651767163146313 0.09883169989898863" magmom=0.0 free_energy=-37.5144933835416 pbc="T T T"
C       12.39330324      11.84226586      10.78555328      -1.35963650       0.35319734      -0.53812749       1.11362801       0.13555785      -1.24684897       0.00000000
C       11.61831618      10.82502164      11.58879776       0.15605066      -0.06721766      -0.49175688      -1.12825444      -1.68770679       0.28323792       0.00000000
O       10.49984242      11.55612073      12.19842863      -0.69041882       2.15184010       0.73134771      -2.20446131       0.52999756       1.51752930       0.00000000
H       11.72778592      12.33479116       9.95608657      -0.36342801       0.25919645      -0.29654571      -0.27382564       0.36704711      -0.28226759       0.00000000
H       13.33988557      11.36180720      10.29061718       0.32123811      -0.01220718      -0.18756637       0.39280232      -0.40434975      -0.48470417       0.00000000
H       12.84124605      12.60683589      11.50768683       0.27432479       0.05977633       0.39351833       0.32272002       1.36673325       0.83985561       0.00000000
H       11.21840992       9.94200802      10.88352081      -0.16603000      -0.38012844      -0.29393176       0.16795246      -0.43337761      -0.38129755       0.00000000
H       12.26968270      10.32013300      12.42228600       0.22978236      -0.24977837       0.29350177       1.02441857      -0.57959364       0.50145923       0.00000000
H        9.98240459      10.79770939      12.86602757      -0.10417618      -0.34866375       0.64755910       0.58801446       0.69676206      -0.73954072       0.00000000
9
Lattice="23.296006118037088 0.0 0.0 0.0 22.649327160371357 0.0 0.0 0.0 22.71683509278982" Properties=species:S:1:pos:R:3:momenta:R:3:forces:R:3:magmoms:R:1 Energy:=T 4.1390592=T energy=-37.52876407793189 dipole="0.04191169136855897 -0.28096317367055423 0.09948238965910798" magmom=0.0 free_energy=-37.52876407793189 pbc="T T T"
C       12.38785546      11.84372371      10.78322765      -1.29171752       0.37313967      -0.60379332       1.65217032       0.67653405      -1.42719626       0.00000000
C       11.61884099      10.82457732      11.58681539       0.10056838      -0.16647418      -0.47224964      -1.13109633      -2.35421943       0.51113630       0.00000000
O       10.49755680      11.56276637      12.20078810      -0.80226252       2.16218718       0.81403145      -2.35004010      -0.10864338       1.84951961       0.00000000
H       11.70975073      12.34785933       9.94130004      -0.36856370       0.27172319      -0.30033657       0.06468998       0.14306669       0.12789593       0.00000000
H       13.35600746      11.36072862      10.28089831       0.32810056      -0.02632949      -0.20563333      -0.11334948      -0.17073936      -0.25101915       0.00000000
H       12.85499830      12.61138370      11.52786537       0.28239927       0.11553975       0.42240677       0.00608919       0.90406612       0.33654001       0.00000000
H       11.21052128       9.92296822      10.86874316      -0.15394858      -0.39098356      -0.30378734       0.32402744      -0.00866469      -0.02004175       0.00000000
H       12.28210425      10.30726939      12.43718648       0.27068932      -0.27093687       0.30625159       0.64139531      -0.28202299       0.01773912       0.00000000
H        9.97803230      10.78155488      12.89669418      -0.06796168      -0.30282815       0.60027326       0.88671322       1.16975660      -1.18603431       0.00000000
9
Lattice="23.296006118037088 0.0 0.0 0.0 22.649327160371357 0.0 0.0 0.0 22.71683509278982" Properties=species:S:1:pos:R:3:momenta:R:3:forces:R:3:magmoms:R:1 Energy:=T 4.1390592=T energy=-37.468880664069914 dipole="0.04802416707253897 -0.27604837797124643 0.10004493139755581" magmom=0.0 free_energy=-37.468880664069914 pbc="T T T"
C       12.38278791      11.84536269      10.78060814      -1.18716205       0.42917923      -0.67825447       2.12313166       1.15467724      -1.53268842       0.00000000
C       11.61914406      10.82361176      11.58495761       0.04636024      -0.30670521      -0.43652624      -1.13037996      -2.87382779       0.72509608       0.00000000
O       10.49492019      11.56935951      12.20343416      -0.91709385       2.13305211       0.91326065      -2.37012338      -0.59872756       2.08874798       0.00000000
H       11.69219380      12.36105218       9.92720423      -0.35145498       0.26939652      -0.27738949       0.36168329      -0.05587382       0.48506580       0.00000000
H       13.37134046      11.35946083      10.27081427       0.30116429      -0.02544957      -0.20838183      -0.55091214       0.02322641      -0.05774231       0.00000000
H       12.86838720      12.61763696      11.54828144       0.26765659       0.14013802       0.41597676      -0.29058958       0.48039063      -0.12381641       0.00000000
H       11.20353486       9.90429306      10.85424984      -0.13213589      -0.37454184      -0.29052885       0.45823248       0.35612428       0.28222548       0.00000000
H       12.29567039      10.29404612      12.45163396       0.28542386      -0.27166484       0.28669757       0.28479900      -0.01106205      -0.39993222       0.00000000
H        9.97591869      10.76851014      12.92422062      -0.01729584      -0.23062900       0.52864024       1.06217338       1.51078854      -1.47859687       0.00000000
9
Lattice="23.296006118037088 0.0 0.0 0.0 22.649327160371357 0.0 0.0 0.0 22.71683509278982" Properties=species:S:1:pos:R:3:momenta:R:3:forces:R:3:magmoms:R:1 Energy:=T 4.1390592=T energy=-37.359388003368785 dipole="0.05306769596338712 -0.27199317424563285 0.10060282259877476" magmom=0.0 free_energy=-37.359388003368785 pbc="T T T"
C       12.37814675      11.84723357      10.77768083      -1.07312101       0.49556764      -0.75437207       2.52085025       1.54879346      -1.56697417       0.00000000
C       11.61922013      10.82206906      11.58324544      -0.00905524      -0.45694191      -0.39634050      -1.12625021      -3.24411422       0.91134857       0.00000000
O       10.49192624      11.57586239      12.20639513      -1.03138668       2.09397313       1.01994438      -2.28411169      -0.99264740       2.25562951       0.00000000
H       11.67550237      12.37411132       9.91426917      -0.32767433       0.26238899      -0.24640156       0.60671300      -0.22948693       0.77682520       0.00000000
H       13.38535513      11.35824863      10.26059205       0.26551818      -0.02013642      -0.20748552      -0.90066978       0.19313594       0.09424192       0.00000000
H       12.88108073      12.62503978      11.56840121       0.24698762       0.15450657       0.39951303      -0.55109267       0.10472596      -0.54661986       0.00000000
H       11.19764499       9.88647011      10.84043188      -0.10704077      -0.34980750      -0.27035409       0.56369153       0.65110793       0.53933153       0.00000000
H       12.30991806      10.28079637      12.46512441       0.29163008      -0.26661887       0.25838074      -0.03206899       0.21654432      -0.75318627       0.00000000
H        9.97634686      10.75908069      12.94820878       0.03720131      -0.15072529       0.45054047       1.15706097       1.74305219      -1.70178365       0.00000000
9
Lattice="23.296006118037088 0.0 0.0 0.0 22.649327160371357 0.0 0.0 0.0 22.71683509278982" Properties=species:S:1:pos:R:3:momenta:R:3:forces:R:3:magmoms:R:1 Energy:=T 4.1390592=T energy=-37.229228495358036 dipole="0.05718497420041317 -0.2690565557113049 0.10118351797556648" magmom=0.0 free_energy=-37.229228495358036 pbc="T T T"
C       12.37401184      11.84941549      10.77443882      -0.94157489       0.57856797      -0.83054463       2.83597377       1.83114762      -1.53492623       0.00000000
C       11.61907001      10.81987485      11.58171630      -0.06417322      -0.62160418      -0.34806491      -1.11826548      -3.46126672       1.05453114       0.00000000
O       10.48858792      11.58221560      12.20969618      -1.13925498       2.03657252       1.13192812      -2.10850375      -1.34482190       2.30457464       0.00000000
H       11.66026280      12.38662130       9.90319304      -0.29330689       0.24747656      -0.20290749       0.79279882      -0.37777767       0.99434123       0.00000000
H       13.39721451      11.35749859      10.25059535       0.21428932      -0.00713825      -0.19950875      -1.18547295       0.33617582       0.23058832       0.00000000
H       12.89245550      12.63269322      11.58721293       0.21450467       0.15207606       0.36417372      -0.77167884      -0.20370131      -0.89246852       0.00000000
H       11.19310402       9.87020524      10.82790454      -0.07760611      -0.31195035      -0.23876767       0.63494731       0.89051179       0.74693123       0.00000000
H       12.32408898      10.26806481      12.47681248       0.28356534      -0.25095151       0.21424792      -0.29634350       0.42146204      -1.04399161       0.00000000
H        9.97954386      10.75382235      12.96812460       0.09496583      -0.06149257       0.36400925       1.19522717       1.89068468      -1.82194277       0.00000000
9
Lattice="23.296006118037088 0.0 0.0 0.0 22.649327160371357 0.0 0.0 0.0 22.71683509278982" Properties=species:S:1:pos:R:3:momenta:R:3:forces:R:3:magmoms:R:1 Energy:=T 4.1390592=T energy=-37.10648133761277 dipole="0.06059326568400027 -0.26739068623859086 0.10181673020424381" magmom=0.0 free_energy=-37.10648133761277 pbc="T T T"
C       12.37044647      11.85196515      10.77088857      -0.79703876       0.67274708      -0.90378674       3.04983012       2.00401625      -1.44764075       0.00000000
C       11.61869531      10.81698553      11.58039894      -0.11874244      -0.79333001      -0.29398473      -1.10390372      -3.53175652       1.14772328       0.00000000
O       10.48493171      11.58836606      12.21334468      -1.23762033       1.96380576       1.24357489      -1.89713210      -1.61838742       2.24190786       0.00000000
H       11.64692039      12.39822726       9.89449637      -0.25060489       0.22599737      -0.14981382       0.94611280      -0.49689835       1.16774039       0.00000000
H       13.40623706      11.35755302      10.24115045       0.15078166       0.01199260      -0.18570815      -1.40068729       0.44287081       0.33140000       0.00000000
H       12.90198364      12.63985919      11.60388898       0.17213060       0.13622372       0.31310589      -0.95387884      -0.44183798      -1.18711680       0.00000000
H       11.19008248       9.85607137      10.81716460      -0.04545520      -0.26365746      -0.19854714       0.67430301       1.07607247       0.89093011       0.00000000
H       12.33755075      10.25634180      12.48600230       0.26395356      -0.22632661       0.15770691      -0.50228783       0.58131394      -1.25847277       0.00000000
H        9.98560103      10.75308840      12.98368053       0.15319097       0.03329942       0.27278220       1.17581810       1.96943704      -1.89300701       0.00000000
9
Lattice="23.296006118037088 0.0 0.0 0.0 22.649327160371357 0.0 0.0 0.0 22.71683509278982" Properties=species:S:1:pos:R:3:momenta:R:3:forces:R:3:magmoms:R:1 Energy:=T 4.1390592=T energy=-37.01544501519236 dipole="0.06351666723238104 -0.26706579178130146 0.10253882897023091" magmom=0.0 free_energy=-37.01544501519236 pbc="T T T"
C       12.36749359      11.85491727      10.76704758      -0.64454012       0.77288912      -0.97153416       3.16022258       2.07397015      -1.31117125       0.00000000
C       11.61809892      10.81338693      11.57931207      -0.17239164      -0.96513365      -0.23653279      -1.08080030      -3.46443489       1.19183568       0.00000000
O       10.48098947      11.59427252      12.21733119      -1.32491986       1.87975542       1.35117975      -1.65788133      -1.80431265       2.13997951       0.00000000
H       11.63584201      12.40864414       9.88859408      -0.20164147       0.19974403      -0.08966922       1.04777687      -0.57219056       1.28146953       0.00000000
H       13.41190778      11.35866724      10.23249858       0.07855903       0.03546585      -0.16773856      -1.54036453       0.51300738       0.40035826       0.00000000
H       12.90922917      12.64596786      11.61772428       0.12198060       0.11018475       0.24937376      -1.08833069      -0.61852151      -1.40818409       0.00000000
H       11.18867453       9.84451252      10.80855665      -0.01204798      -0.20772608      -0.15216067       0.68610660       1.20156631       0.99802093       0.00000000
H       12.34981056      10.24600988      12.49218061       0.23526081      -0.19476255       0.09220042      -0.66613899       0.70403824      -1.40908374       0.00000000
H        9.99447192      10.75706729      12.99470651       0.20923553       0.13016479       0.17961336       1.10642973       1.97511670      -1.90101668       0.00000000
9
Lattice="23.296006118037088 0.0 0.0 0.0 22.649327160371357 0.0 0.0 0.0 22.71683509278982" Properties=species:S:1:pos:R:3:momenta:R:3:forces:R:3:magmoms:R:1 Energy:=T 4.1390592=T energy=-36.97330696598309 dipole="0.06617306126298891 -0.2680914303689617 0.10339514439235908" magmom=0.0 free_energy=-36.97330696598309 pbc="T T T"
C       12.36517537      11.85828590      10.76294328      -0.48903461       0.87425334      -1.03158588       3.17227656       2.05378622      -1.13425614       0.00000000
C       11.61728548      10.80909258      11.57846455      -0.22463567      -1.13044453      -0.17797447      -1.04668205      -3.26735851       1.19277749       0.00000000
O       10.47679727      11.59990695      12.22164034      -1.39906882       1.78722656       1.45301909      -1.36161453      -1.96364959       2.00712446       0.00000000
H       11.62727095      12.41769179       9.88575834      -0.14900480       0.17069988      -0.02540481       1.09569470      -0.61054612       1.33550742       0.00000000
H       13.41389243      11.36100908      10.22480477       0.00115320       0.06162748      -0.14718399      -1.61175739       0.55234733       0.43666533       0.00000000
H       12.91387033      12.65059641      11.62818980       0.06629578       0.07683011       0.17624320      -1.17926794      -0.73974701      -1.56984040       0.00000000
H       11.18890843       9.83582901      10.80233695       0.02145722      -0.14711142      -0.10136501       0.67829284       1.26678547       1.07048107       0.00000000
H       12.36047630      10.23736271      12.49498699       0.19936698      -0.15820469       0.02077512      -0.79553036       0.78467189      -1.49949886       0.00000000
H       10.00599048      10.76577262      13.00118338       0.26099049       0.22569022       0.08791876       1.00113706       1.91487192      -1.83297295       0.00000000
9
Lattice="23.296006118037088 0.0 0.0 0.0 22.649327160371357 0.0 0.0 0.0 22.71683509278982" Properties=species:S:1:pos:R:3:momenta:R:3:forces:R:3:magmoms:R:1 Energy:=T 4.1390592=T energy=-36.98741604581112 dipole="0.06875779932665563 -0.27043216072692644 0.10445950877711874" magmom=0.0 free_energy=-36.98741604581112 pbc="T T T"
C       12.36349422      11.86206698      10.75861119      -0.33503214       0.97236245      -1.08171063       3.09901548       1.94141497      -0.90692508       0.00000000
C       11.61626183      10.80414206      11.57785658      -0.27496083      -1.28323055      -0.12030281      -1.00266044      -2.95439730       1.15572944       0.00000000
O       10.47239979      11.60524532      12.22625210      -1.45742498       1.68816288       1.54647375      -1.01476640      -2.07042394       1.79853831       0.00000000
H       11.62132188      12.42527840       9.88611845      -0.09505655       0.14049420       0.04019416       1.10118718      -0.61949030       1.33581535       0.00000000
H       13.41202016      11.36467268      10.21815589      -0.07805540       0.08911226      -0.12578870      -1.61377706       0.56688831       0.43459425       0.00000000
H       12.91568952      12.65345475      11.63489871       0.00720091       0.03886960       0.09676630      -1.22719452      -0.80608161      -1.66661985       0.00000000
H       11.19076548       9.83017690      10.79867889       0.05397516      -0.08437557      -0.04793687       0.64590337       1.28794517       1.10522091       0.00000000
H       12.36923835      10.23059325      12.49420509       0.15820602      -0.11844281      -0.05387929      -0.88062735       0.83451217      -1.54057996       0.00000000
H       10.01990476      10.77906021      13.00327396       0.30687293       0.31643938       0.00146446       0.86728886       1.78061759      -1.68762085       0.00000000
9
Lattice="23.296006118037088 0.0 0.0 0.0 22.649327160371357 0.0 0.0 0.0 22.71683509278982" Properties=species:S:1:pos:R:3:momenta:R:3:forces:R:3:magmoms:R:1 Energy:=T 4.1390592=T energy=-37.053784032788364 dipole="0.07142662012364308 -0.2739661548873749 0.10579913565734965" magmom=0.0 free_energy=-37.053784032788364 pbc="T T T"
C       12.36241828      11.86621706      10.75412339      -0.19071380       1.05804145      -1.11328742       2.94889877       1.75570254      -0.64219404       0.00000000
C       11.61504186      10.79863778      11.57747249      -0.32165126      -1.40847296      -0.06731040      -0.94875498      -2.53975883       1.08409620       0.00000000
O       10.46787757      11.61026905      12.23112020      -1.48936338       1.58602554       1.62265360      -0.66060327      -2.05579746       1.50024932       0.00000000
H       11.61795148      12.43141955       9.88960344      -0.04300044       0.11120551       0.10315696       1.06583769      -0.60410870       1.28809463       0.00000000
H       13.40636985      11.36966876      10.21250069      -0.15402526       0.11617876      -0.10619779      -1.54983639       0.55543552       0.40188814       0.00000000
H       12.91457108      12.65438222      11.63758952      -0.05337986      -0.00125301       0.01326406      -1.23897552      -0.82618014      -1.70876701       0.00000000
H       11.19410246       9.82756139      10.79764889       0.08295583      -0.02251551       0.00585573       0.58917148       1.26909360       1.09930734       0.00000000
H       12.37585193      10.22582953      12.48976831       0.11290274      -0.07674936      -0.12857768      -0.92983955       0.85600034      -1.52779247       0.00000000
H       10.03572713      10.79637516      13.00152541       0.34158746       0.39414131      -0.07185878       0.68619213       1.57883546      -1.46484350       0.00000000
9
Lattice="23.296006118037088 0.0 0.0 0.0 22.649327160371357 0.0 0.0 0.0 22.71683509278982" Properties=species:S:1:pos:R:3:momenta:R:3:forces:R:3:magmoms:R:1 Energy:=T 4.1390592=T energy=-37.162024933387876 dipole="0.07427227545392838 -0.27863363892268594 0.10753852327386847" magmom=0.0 free_energy=-37.162024933387876 pbc="T T T"
C       12.36193455      11.87071973      10.74950663      -0.05127296       1.13794194      -1.13741177       2.72941434       1.49800726      -0.34019836       0.00000000
C       11.61363134      10.79262345      11.57730611      -0.36684873      -1.52080197      -0.01659060      -0.89177750      -2.03450571       0.98131694       0.00000000
O       10.46325574      11.61498283      12.23621449      -1.51211151       1.48823435       1.68608173      -0.26574657      -1.92645745       1.08267266       0.00000000
H       11.61713161      12.43611508       9.89617082       0.00756417       0.08256402       0.16391710       0.99325527      -0.56223056       1.18618127       0.00000000
H       13.39701080      11.37599399      10.20780720      -0.22699475       0.14236529      -0.08810289      -1.42162901       0.51093269       0.33497303       0.00000000
H       12.91048779      12.65333265      11.63619126      -0.11355163      -0.04127266      -0.07038101      -1.21134050      -0.80350094      -1.69742939       0.00000000
H       11.19884931       9.82798282      10.79924952       0.10991160       0.03821123       0.05866812       0.50852189       1.20382203       1.05132002       0.00000000
H       12.38024042      10.22311422      12.48167553       0.06701156      -0.03486537      -0.20219925      -0.93894225       0.84960052      -1.47022677       0.00000000
H       10.05319156      10.81746825      12.99627151       0.36950632       0.46411267      -0.13569588       0.45072012       1.27053967      -1.13473224       0.00000000
9
Lattice="23.296006118037088 0.0 0.0 0.0 22.649327160371357 0.0 0.0 0.0 22.71683509278982" Properties=species:S:1:pos:R:3:momenta:R:3:forces:R:3:magmoms:R:1 Energy:=T 4.1390592=T energy=-37.2908304313292 dipole="0.07734003386307717 -0.2842677934109646 0.10976026730845978" magmom=0.0 free_energy=-37.2908304313292 pbc="T T T"
C       12.36199896      11.87552324      10.74482155       0.07580009       1.20375213      -1.14595337       2.44525737       1.18191682      -0.00763287       0.00000000
C       11.61204174      10.78620054      11.57733681      -0.40937167      -1.60653442       0.02860288      -0.83984275      -1.45669286       0.85905285       0.00000000
O       10.45859385      11.61940617      12.24147201      -1.51372923       1.39925824       1.72589132       0.19986952      -1.69682985       0.53845441       0.00000000
H       11.61868858      12.43946520       9.90557673       0.05349981       0.05691238       0.21857636       0.87733714      -0.48235644       1.03965460       0.00000000
H       13.38424981      11.38354188      10.20391529      -0.29220895       0.16564276      -0.07397114      -1.23402532       0.43697316       0.24050041       0.00000000
H       12.90350578      12.65036031      11.63073107      -0.17149818      -0.07913209      -0.15218634      -1.14836051      -0.73821181      -1.63384891       0.00000000
H       11.20481305       9.83128498      10.80336595       0.13240246       0.09454300       0.10799292       0.40735134       1.09012171       0.95728558       0.00000000