9
Lattice="23.296006118037088 0.0 0.0 0.0 22.649327160371357 0.0 0.0 0.0 22.71683509278982" Properties=species:S:1:pos:R:3:momenta:R:3:forces:R:3:magmoms:R:1 Energy:=T 4.1390592=T energy=-36.96112161380689 dipole="-0.012785724479007285 -0.3038965477803958 0.082478182594486" magmom=0.0 free_energy=-36.96112161380689 pbc="T T T"
C       12.42494321      11.83286614      10.79562333       0.69145758      -0.22693244       0.23076832      -0.45266403      -1.03780920      -0.31286886       0.00000000
C       11.61423975      10.82667300      11.59819281       0.40644497       0.41573869      -0.18752421      -0.29304324       0.21648616       0.03614020       0.00000000
O       10.50963410      11.52807112      12.18878345       0.69470987       0.60438321       0.12466900      -0.21031654       4.34308925      -0.99987658       0.00000000
H       11.78642603      12.27937410       9.98677361      -0.14781924      -0.24834775      -0.30868277      -1.24972701       0.97495975      -1.51590595       0.00000000
H       13.30443812      11.34099491      10.30826886       0.21920467      -0.04556015      -0.09614334       1.87919942      -1.06579311      -1.03197663       0.00000000
H       12.79354520      12.63293558      11.45754241       0.00147338      -0.28000206       0.12122085       0.98284230       2.29741646       1.78541692       0.00000000
H       11.23805979      10.00247831      10.90988421      -0.36443129       0.00535685      -0.35961697      -0.30681842      -1.85316538      -1.50043732       0.00000000
H       12.26215998      10.35408826      12.40325822       0.08928617       0.01911352       0.39452284       1.66147924      -1.18520576       1.35435943       0.00000000
H        9.99772730      10.85552566      12.71369421      -0.09790427      -0.34291117      -0.01219843      -2.08739188      -2.69976792       2.12832332       0.00000000
9
Lattice="23.296006118037088 0.0 0.0 0.0 22.649327160371357 0.0 0.0 0.0 22.71683509278982" Properties=species:S:1:pos:R:3:momenta:R:3:forces:R:3:magmoms:R:1 Energy:=T 4.1390592=T energy=-37.136366553185184 dipole="-0.014090611591712114 -0.3026858435346861 0.07688475839302225" magmom=0.0 free_energy=-37.136366553185184 pbc="T T T"
C       12.42772515      11.83183399      10.79653554       0.66969076      -0.27919289       0.19758870      -0.43372508      -1.09034207      -1.03827245       0.00000000
C       11.61587230      10.82839471      11.59742964       0.39474270       0.40515759      -0.18460686      -0.18349674      -0.64736967       0.08266031       0.00000000
O       10.51175085      11.53025384      12.18909078       0.66930735       0.80212546       0.09089376      -0.82412528       3.70937535      -0.37551932       0.00000000
H       11.77772844      12.26844022       9.96991968      -0.20070070      -0.20449993      -0.37264798      -0.90371287       0.81061227      -1.08888683       0.00000000
H       13.31736704      11.33749984      10.30234964       0.30256013      -0.09343399      -0.14150505       1.51520367      -0.88372633      -0.81524393       0.00000000
H       12.79479296      12.62204170      11.46558498       0.05071676      -0.16320192       0.21011360       1.02244766       2.45892175       1.83447557       0.00000000
H       11.21993625      10.00052201      10.89056708      -0.37292805      -0.07459842      -0.42210333      -0.03918690      -1.40277526      -1.04413365       0.00000000
H       12.26849828      10.35360145      12.42410131       0.16188796      -0.03400209       0.44870245       1.29501234      -0.97776931       0.85194373       0.00000000
H        9.99045949      10.83558751      12.71564639      -0.18682903      -0.45826721       0.07800966      -1.53380410      -1.99776356       1.54513225       0.00000000
9
Lattice="23.296006118037088 0.0 0.0 0.0 22.649327160371357 0.0 0.0 0.0 22.71683509278982" Properties=species:S:1:pos:R:3:momenta:R:3:forces:R:3:magmoms:R:1 Energy:=T 4.1390592=T energy=-37.30783393041584 dipole="-0.015037972530546676 -0.29951054874423566 0.0715356658330406" magmom=0.0 free_energy=-37.30783393041584 pbc="T T T"
C       12.43041999      11.83058288      10.79723923       0.65287141      -0.32865570       0.13100259      -0.25119261      -0.92388336      -1.67324857       0.00000000
C       11.61746799      10.82998641      11.59668308       0.38839470       0.35108842      -0.17888702      -0.07500663      -1.55443645       0.15026296       0.00000000
O       10.51374336      11.53299582      12.18934150       0.61159824       0.96477854       0.08964578      -1.52590630       2.91418681       0.32469874       0.00000000
H       11.76686828      12.25944612       9.95046005      -0.23538757      -0.16923858      -0.41433562      -0.50880678       0.62530095      -0.60871818       0.00000000
H       13.33392181      11.33189002      10.29447956       0.36596862      -0.13083800      -0.17483306       1.06691816      -0.63944052      -0.54194013       0.00000000
H       12.79848742      12.61703198      11.47801743       0.09920693      -0.04442350       0.29635330       0.95217025       2.37797578       1.67737924       0.00000000
H       11.20171894       9.99520889      10.86875135      -0.36763607      -0.13195857      -0.46148528       0.25468736      -0.93304575      -0.55957899       0.00000000
H       12.27793554      10.35077484      12.44698309       0.21593923      -0.07648555       0.47735395       0.90606491      -0.75224295       0.31480359       0.00000000
H        9.97952130      10.81086873      12.72129605      -0.24581121      -0.53484723       0.13733826      -0.86806984      -1.12072956       0.87084837       0.00000000
9
Lattice="23.296006118037088 0.0 0.0 0.0 22.649327160371357 0.0 0.0 0.0 22.71683509278982" Properties=species:S:1:pos:R:3:momenta:R:3:forces:R:3:magmoms:R:1 Energy:=T 4.1390592=T energy=-37.42037007273188 dipole="-0.015543914021526023 -0.2949473432825392 0.0666936344425473" magmom=0.0 free_energy=-37.42037007273188 pbc="T T T"
C       12.43306439      11.82914622      10.79760689       0.64821070      -0.36543107       0.03742492       0.06139899      -0.57368399      -2.13742332       0.00000000
C       11.61904862      10.83126594      11.59596669       0.38689597       0.25407744      -0.16958199       0.01397531      -2.39604689       0.22865666       0.00000000
O       10.51550580      11.53617717      12.18964117       0.52076680       1.08823176       0.12139278      -2.17293387       2.11307825       0.96810339       0.00000000
H       11.75479054      12.25194837       9.92954376      -0.25069609      -0.14278385      -0.43231740      -0.11458731       0.45198938      -0.12353627       0.00000000
H       13.35302972      11.32475002      10.28531262       0.40652122      -0.15580811      -0.19435822       0.58446583      -0.37739299      -0.25316401       0.00000000
H       12.80446041      12.61771274      11.49446383       0.14180012       0.06505794       0.37032915       0.78231042       2.08032973       1.33506715       0.00000000
H       11.18411109       9.98766300      10.84559656      -0.34821276      -0.16702079      -0.47765777       0.53626909      -0.49475902      -0.09899763       0.00000000
H       12.28954099      10.34614813      12.47061820       0.25119974      -0.10773936       0.48010631       0.52981413      -0.52047538      -0.20272211       0.00000000
H        9.96650583      10.78346806      12.72902964      -0.27333197      -0.56926284       0.16456479      -0.25263096      -0.28074362       0.23787110       0.00000000
9
Lattice="23.296006118037088 0.0 0.0 0.0 22.649327160371357 0.0 0.0 0.0 22.71683509278982" Properties=species:S:1:pos:R:3:momenta:R:3:forces:R:3:magmoms:R:1 Energy:=T 4.1390592=T energy=-37.44708268741556 dipole="-0.015657112758975748 -0.2897561476967053 0.062492935249574055" magmom=0.0 free_energy=-37.44708268741556 pbc="T T T"
C       12.43572111      11.82759435      10.79754529       0.66074427      -0.38224368      -0.07428880       0.44899341      -0.11095978      -2.41178525       0.00000000
C       11.62063206      10.83206428      11.59529622       0.38907629       0.11902689      -0.15639380       0.07481184      -3.10348453       0.30839341       0.00000000
O       10.51694064      11.53967709      12.19008680       0.40134647       1.17427673       0.18166162      -2.69010342       1.39084699       1.48616552       0.00000000
H       11.74243860      12.24553221       9.90833185      -0.24733271      -0.12447330      -0.42744933       0.25155091       0.29365322       0.32177410       0.00000000
H       13.37353624      11.31670693      10.27553986       0.42363235      -0.16807575      -0.19993694       0.11233390      -0.12217001       0.02598719       0.00000000
H       12.81230547      12.62337171      11.51410503       0.17434172       0.15608661       0.42403243       0.54284917       1.62654182       0.85183920       0.00000000
H       11.16778652       9.97893315      10.82220486      -0.31632481      -0.18187782      -0.47245772       0.76227266      -0.11024914       0.31075450       0.00000000
H       12.30241429      10.34027593      12.49376819       0.26844349      -0.12843664       0.45887537       0.17238609      -0.32236004      -0.66184455       0.00000000
H        9.95288582      10.75539556      12.73733245      -0.27285461      -0.56467215       0.16350962       0.27206983       0.46768575      -0.28083959       0.00000000
9
Lattice="23.296006118037088 0.0 0.0 0.0 22.649327160371357 0.0 0.0 0.0 22.71683509278982" Properties=species:S:1:pos:R:3:momenta:R:3:forces:R:3:magmoms:R:1 Energy:=T 4.1390592=T energy=-37.38926754997668 dipole="-0.015464611176973479 -0.2847202052275354 0.05893246130303658" magmom=0.0 free_energy=-37.38926754997668 pbc="T T T"
C       12.43846801      11.82602020      10.79699935       0.69266801      -0.37550070      -0.19539248       0.85100549       0.38554787      -2.51980152       0.00000000
C       11.62223052      10.83223935      11.59468769       0.39355256      -0.04664276      -0.13945998       0.10747066      -3.64291900       0.38118597       0.00000000
O       10.51796990      11.54338672      12.19075649       0.26036831       1.22755073       0.26386492      -3.05081228       0.77857798       1.86131949       0.00000000
H       11.73068862      12.23981877       9.88788995      -0.22762491      -0.11303602      -0.40227977       0.55099087       0.17209576       0.70318131       0.00000000
H       13.39431157      11.30837148      10.26582929       0.41879634      -0.16847419      -0.19265668      -0.30926578       0.10594448       0.27047990       0.00000000
H       12.82144955      12.63292297      11.53578467       0.19462723       0.22276674       0.45267703       0.28321792       1.08880806       0.31462684       0.00000000
H       11.15328606       9.96993948      10.79955680      -0.27419190      -0.17967621      -0.44850468       0.95346443       0.19990308       0.66466145       0.00000000
H       12.31570010      10.33363232      12.51533439       0.26952458      -0.14024920       0.41706606      -0.12836185      -0.15867116      -1.04071532       0.00000000
H        9.93991687      10.72844224      12.74496322      -0.24925221      -0.52744343       0.14037640       0.68906772       1.04834319      -0.66119184       0.00000000
9
Lattice="23.296006118037088 0.0 0.0 0.0 22.649327160371357 0.0 0.0 0.0 22.71683509278982" Properties=species:S:1:pos:R:3:momenta:R:3:forces:R:3:magmoms:R:1 Energy:=T 4.1390592=T energy=-37.271883137115495 dipole="-0.015006157161771578 -0.28067597387064364 0.05590381856317181" magmom=0.0 free_energy=-37.271883137115495 pbc="T T T"
C       12.44142274      11.82457011      10.79594848       0.75212022      -0.33422678      -0.31854494       1.20223499       0.83083477      -2.50640571       0.00000000
C       11.62385140      10.83164610      11.59416179       0.39925968      -0.24320868      -0.11782441       0.11655896      -3.99587322       0.43928266       0.00000000
O       10.51852327      11.54717545      12.19172524       0.10039050       1.24117637       0.36703101      -3.25267414       0.28404596       2.09533114       0.00000000
H       11.72053433      12.23440761       9.86947658      -0.18883950      -0.10894696      -0.35314157       0.79676743       0.08597305       1.00878839       0.00000000
H       13.41394233      11.30050867      10.25699464       0.38658339      -0.15437346      -0.16996776      -0.66443254       0.28513817       0.46235140       0.00000000
H       12.83099456      12.64444756      11.55762549       0.19681160       0.25097965       0.44368625       0.03709117       0.58843714      -0.18620414       0.00000000
H       11.14124112       9.96172885      10.77884389      -0.22004398      -0.15762253      -0.40171407       1.10622674       0.44353341       0.95271695       0.00000000
H       12.32838830      10.32675301      12.53406843       0.25146598      -0.14156215       0.35140400      -0.36426871      -0.01514353      -1.34754883       0.00000000
H        9.92894663      10.70448918      12.75071708      -0.20123403      -0.45508943       0.09539776       0.97398492       1.48719618      -0.92414080       0.00000000
9
Lattice="23.296006118037088 0.0 0.0 0.0 22.649327160371357 0.0 0.0 0.0 22.71683509278982" Properties=species:S:1:pos:R:3:momenta:R:3:forces:R:3:magmoms:R:1 Energy:=T 4.1390592=T energy=-37.12632573752206 dipole="-0.014290687847564208 -0.2779183747632148 0.053260355455372804" magmom=0.0 free_energy=-37.12632573752206 pbc="T T T"
C       12.44461891      11.82328687      10.79439426       0.81819157      -0.28422082      -0.43912386       1.48832419       1.20550900      -2.40381209       0.00000000
C       11.62549570      10.83025037      11.59372411       0.40483314      -0.44409177      -0.09523103       0.11040351      -4.18449226       0.48076544       0.00000000
O       10.51858625      11.55100700      12.19300990      -0.06127998       1.24524784       0.47306724      -3.33087500      -0.11824772       2.22267848       0.00000000
H       11.71228671      12.22920217       9.85347723      -0.14513158      -0.10615627      -0.29811454       0.98310735       0.02766977       1.23202350       0.00000000
H       13.43198311      11.29332819      10.24926638       0.34715009      -0.13670199      -0.14330894      -0.94137126       0.43448015       0.62324976       0.00000000
H       12.84062833      12.65738028      11.57902073       0.19344960       0.26858185       0.42326315      -0.17399864       0.12836010      -0.64546567       0.00000000
H       11.13184336       9.95457958      10.76041082      -0.16341116      -0.13152763      -0.34986674       1.19997619       0.61910363       1.15861123       0.00000000
H       12.34020480      10.31983746      12.54957779       0.22906299      -0.13963702       0.27963798      -0.54802626       0.09353871      -1.57490856       0.00000000
H        9.92030714      10.68409497      12.75425948      -0.14889267      -0.37445430       0.04592652       1.15746139       1.79642924      -1.09042815       0.00000000
9
Lattice="23.296006118037088 0.0 0.0 0.0 22.649327160371357 0.0 0.0 0.0 22.71683509278982" Properties=species:S:1:pos:R:3:momenta:R:3:forces:R:3:magmoms:R:1 Energy:=T 4.1390592=T energy=-36.984372107953746 dipole="-0.013276165053625477 -0.2767178814093457 0.0508437278012378" magmom=0.0 free_energy=-36.984372107953746 pbc="T T T"
C       12.44811398      11.82224572      10.79235729       0.89646122      -0.21821418      -0.55313850       1.69897419       1.48241494      -2.23909436       0.00000000
C       11.62716216      10.82801429      11.59338298       0.40989308      -0.65060766      -0.07108920       0.09564735      -4.22525254       0.50233869       0.00000000
O       10.51814704      11.55482073      12.19462967      -0.22423644       1.23121672       0.58314713      -3.30504140      -0.45312776       2.25999720       0.00000000
H       11.70639164      12.22406296       9.84042610      -0.09350507      -0.10574120      -0.23385564       1.11922880      -0.01076751       1.38472880       0.00000000
H       13.44777119      11.28718742      10.24302956       0.29603992      -0.11237975      -0.10991845      -1.13993819       0.55597045       0.73647866       0.00000000
H       12.84984571      12.67062016      11.59887138       0.18024729       0.26552841       0.38207007      -0.36362636      -0.25270227      -1.03200025       0.00000000
H       11.12531713       9.94891182      10.74475029      -0.10295321      -0.09803932      -0.28901699       1.26199390       0.74460794       1.31931345       0.00000000
H       12.35070988      10.31314575      12.56131841       0.19850455      -0.13300031       0.19838809      -0.69637508       0.17672162      -1.73375121       0.00000000
H        9.91443744      10.66799960      12.75519250      -0.08959458      -0.28081146      -0.00981939       1.25727669       2.01689657      -1.17965802       0.00000000
9
Lattice="23.296006118037088 0.0 0.0 0.0 22.649327160371357 0.0 0.0 0.0 22.71683509278982" Properties=species:S:1:pos:R:3:momenta:R:3:forces:R:3:magmoms:R:1 Energy:=T 4.1390592=T energy=-36.87284263167789 dipole="-0.01190100554210939 -0.27717012360509075 0.04852778913304641" magmom=0.0 free_energy=-36.87284263167789 pbc="T T T"
C       12.45195025      11.82150229      10.78987065       0.98313317      -0.14108023      -0.65785860       1.83048317       1.65863578      -2.02532019       0.00000000
C       11.62884784      10.82492965      11.59314274       0.41420433      -0.85591038      -0.04643126       0.07991563      -4.13508968       0.50178273       0.00000000
O       10.51720954      11.55856614      12.19659017      -0.38364402       1.20186298       0.69308929      -3.18635792      -0.74221591       2.21707011       0.00000000
H       11.70317488      12.21889797       9.83068862      -0.03638709      -0.10662314      -0.16354032       1.20673093      -0.02514674       1.47865322       0.00000000
H       13.46083142      11.28237708      10.23855512       0.23672552      -0.08314313      -0.07192890      -1.27546424       0.63460397       0.81053256       0.00000000
H       12.85819295      12.68325532      11.61625245       0.15876537       0.24516103       0.32338776      -0.51116075      -0.57669883      -1.35766173       0.00000000
H       11.12181084       9.94502591      10.73224687      -0.04023521      -0.05959610      -0.22130919       1.29201002       0.82087786       1.43788529       0.00000000
H       12.35954855      10.30687693      12.56891019       0.16163283      -0.12297131       0.11083617      -0.80511600       0.23167957      -1.83154016       0.00000000
H        9.91157638      10.65673063      12.75330261      -0.02689236      -0.17839174      -0.06837557       1.29608474       2.15384174      -1.20486795       0.00000000
9
Lattice="23.296006118037088 0.0 0.0 0.0 22.649327160371357 0.0 0.0 0.0 22.71683509278982" Properties=species:S:1:pos:R:3:momenta:R:3:forces:R:3:magmoms:R:1 Energy:=T 4.1390592=T energy=-36.811572391059364 dipole="-0.010108710311898356 -0.2792579483265604 0.04621760534468455" magmom=0.0 free_energy=-36.811572391059364 pbc="T T T"
C       12.45615412      11.82109196      10.78697727       1.07431646      -0.05754785      -0.75098629       1.88268479       1.74297173      -1.76702748       0.00000000
C       11.63054956      10.82101458      11.59300326       0.41784382      -1.05401751      -0.02238232       0.06829165      -3.93223325       0.47753852       0.00000000
O       10.51579163      11.56219965      12.19888494      -0.53513240       1.15952940       0.79913903      -2.98255534      -0.98169300       2.10148978       0.00000000
H       11.70284582      12.21367281       9.82448953       0.02387392      -0.10766073      -0.09004105       1.24721908      -0.01710606       1.51438574       0.00000000
H       13.47083947      11.27908534      10.23602027       0.17250162      -0.05072658      -0.03123040      -1.33986265       0.68546345       0.84679246       0.00000000
H       12.86531698      12.69451046      11.63038466       0.13084345       0.21079958       0.25050314      -0.62587649      -0.82256878      -1.61034759       0.00000000
H       11.12139631       9.94310434      10.72318429       0.02334043      -0.01847556      -0.14906240       1.29691867       0.85363370       1.50415028       0.00000000
H       12.36646058      10.30116252      12.57211911       0.12031071      -0.11083172       0.01972570      -0.87760419       0.26266887      -1.87866232       0.00000000
H        9.91181685      10.65061579      12.74852948       0.03625276      -0.07137098      -0.12706527       1.27531216       2.20426004      -1.18509538       0.00000000
9
Lattice="23.296006118037088 0.0 0.0 0.0 22.649327160371357 0.0 0.0 0.0 22.71683509278982" Properties=species:S:1:pos:R:3:momenta:R:3:forces:R:3:magmoms:R:1 Energy:=T 4.1390592=T energy=-36.81211712573082 dipole="-0.007864661463124875 -0.2828755481954809 0.04386754106419852" magmom=0.0 free_energy=-36.81211712573082 pbc="T T T"
C       12.46073609      11.82103166      10.78372902       1.16629778       0.02802370      -0.83050226       1.86298027       1.74167455      -1.47102364       0.00000000
C       11.63226500      10.81630981      11.59295969       0.42107232      -1.23975914      -0.00008586       0.06317940      -3.63154159       0.43041868       0.00000000
O       10.51392405      11.56568515      12.20149654      -0.67480922       1.10705520       0.89815098      -2.70536714      -1.15516250       1.93047709       0.00000000
H       11.70550133      12.20840672       9.82191435       0.08498389      -0.10787788      -0.01610273       1.24130241       0.00826345       1.49653227       0.00000000
H       13.47764125      11.27743391      10.23551180       0.10653028      -0.01663851       0.01040215      -1.34662393       0.70267160       0.84856940       0.00000000
H       12.87094330      12.70379719      11.64066333       0.09833896       0.16594709       0.16731561      -0.69777174      -1.00391519      -1.77721706       0.00000000
H       11.12408530       9.94322551      10.71772113       0.08645209       0.02333546      -0.07444161       1.27311554       0.84899573       1.53455928       0.00000000
H       12.37127251      10.29607667      12.57083240       0.07620941      -0.09760485      -0.07248752      -0.91829012       0.27595629      -1.87644642       0.00000000
H        9.91510912      10.64977572      12.74092043       0.09707170       0.03631167      -0.18357038       1.20135802       2.18079542      -1.11590713       0.00000000
9
Lattice="23.296006118037088 0.0 0.0 0.0 22.649327160371357 0.0 0.0 0.0 22.71683509278982" Properties=species:S:1:pos:R:3:momenta:R:3:forces:R:3:magmoms:R:1 Energy:=T 4.1390592=T energy=-36.876055921627 dipole="-0.005181125871545004 -0.28787873686331034 0.04147073310597655" magmom=0.0 free_energy=-36.876055921627 pbc="T T T"
C       12.46569220      11.82132114      10.78018535       1.25572908       0.11182087      -0.89436473       1.77884321       1.67071575      -1.12958564       0.00000000
C       11.63399312      10.81087573      11.59300256       0.42410435      -1.40823012       0.01937027       0.06029116      -3.22893752       0.36187406       0.00000000
O       10.51164859      11.56899649      12.20439920      -0.79921835       1.04777182       0.98742648      -2.36082455      -1.25897670       1.70500178       0.00000000
H       11.71112727      12.20316040       9.82292036       0.14468049      -0.10643423       0.05561871       1.18966393       0.05052486       1.42410972       0.00000000
H       13.48122057      11.27746396      10.23703394       0.04173679       0.01752313       0.05124985      -1.29189781       0.68845976       0.81483140       0.00000000
H       12.87489985      12.71068156      11.64668913       0.06312687       0.11374747       0.07738709      -0.73613588      -1.12175910      -1.88485394       0.00000000
H       11.12982084       9.94537832      10.71593016       0.14770604       0.06403066       0.00066722       1.22126938       0.80819501       1.52402405       0.00000000
H       12.37388699      10.29165118      12.56505539       0.03088084      -0.08423197      -0.16339901      -0.92758102       0.26861433      -1.82565332       0.00000000
H        9.92127623      10.65415427      12.73064103       0.15296641       0.14099751      -0.23536644       1.07478778       2.08222350      -0.99333332       0.00000000
9
Lattice="23.296006118037088 0.0 0.0 0.0 22.649327160371357 0.0 0.0 0.0 22.71683509278982" Properties=species:S:1:pos:R:3:momenta:R:3:forces:R:3:magmoms:R:1 Energy:=T 4.1390592=T energy=-36.993132488465506 dipole="-0.0021547977812071944 -0.29401174896793486 0.039052865072097105" magmom=0.0 free_energy=-36.993132488465506 pbc="T T T"
C       12.47099110      11.82193220      10.77645307       1.33619933       0.18728281      -0.93111392       1.64198384       1.54109069      -0.74766760       0.00000000
C       11.63573288      10.80484680      11.59310884       0.42683492      -1.54156927       0.03280855       0.05562907      -2.73483304       0.27757361       0.00000000
O       10.50904664      11.57211568      12.20753901      -0.89605146       0.98476208       1.05823068      -1.97292623      -1.27589089       1.44237424       0.00000000
H       11.71948512      12.19810417       9.82718472       0.19844104      -0.10105598       0.11918650       1.09564504       0.11066581       1.28947015       0.00000000
H       13.48184493      11.27908616      10.24042355      -0.01617098       0.04907779       0.08791858      -1.18033859       0.64275415       0.74727102       0.00000000
H       12.87707628      12.71479671      11.64814337       0.02612931       0.05537531      -0.01776834      -0.75496320      -1.18433929      -1.93897780       0.00000000
H       11.13837896       9.94937223      10.71773041       0.20343406       0.09988842       0.07296505       1.13158743       0.72965101       1.46667543       0.00000000
H       12.37430608      10.28783731      12.55503109      -0.01351985      -0.07239698      -0.24820255      -0.90082852       0.23938538      -1.72925140       0.00000000
H        9.92979394      10.66330588      12.71819990       0.19648036       0.23409860      -0.27526469       0.88218677       1.88428239      -0.81135235       0.00000000
9
Lattice="23.296006118037088 0.0 0.0 0.0 22.649327160371357 0.0 0.0 0.0 22.71683509278982" Properties=species:S:1:pos:R:3:momenta:R:3:forces:R:3:magmoms:R:1 Energy:=T 4.1390592=T energy=-37.14826356644643 dipole="0.0011141904970434228 -0.30114939743480995 0.0366532382556211" magmom=0.0 free_energy=-37.14826356644643 pbc="T T T"
C       12.47661975      11.82285275      10.77257063       1.41233801       0.25861534      -0.95741863       1.45853740       1.36371432      -0.32351365       0.00000000
C       11.63748382      10.79826865      11.59327087       0.42952528      -1.66157704       0.04393541       0.05392770      -2.15212599       0.17553455       0.00000000
O       10.50614723      11.57504251      12.21089628      -0.98214163       0.92446637       1.12163687      -1.53283974      -1.17947226       1.13965406       0.00000000
H       11.73046483      12.19331276       9.83453477       0.24886999      -0.09366277       0.17787385       0.95792384       0.19040072       1.10039770       0.00000000
H       13.47964475      11.28224646      10.24560137      -0.06994743       0.07871743       0.12215967      -1.00954722       0.56423183       0.64709554       0.00000000
H       12.87744609      12.71607774      11.64495765      -0.01080224      -0.00306997      -0.11301060      -0.74896386      -1.19567080      -1.93948000       0.00000000
H       11.14964496       9.95511218      10.72304041       0.25605383       0.13267440       0.14247655       1.01119611       0.60546017       1.36397352       0.00000000
H       12.37256951      10.28459628      12.54086870      -0.05630443      -0.06190536      -0.32943386      -0.84144618       0.18785461      -1.57865208       0.00000000
H        9.94042272      10.67696656      12.70381721       0.23305368       0.31893404      -0.30947372       0.60715271       1.57038796      -0.58170865       0.00000000
9
Lattice="23.296006118037088 0.0 0.0 0.0 22.649327160371357 0.0 0.0 0.0 22.71683509278982" Properties=species:S:1:pos:R:3:momenta:R:3:forces:R:3:magmoms:R:1 Energy:=T 4.1390592=T energy=-37.3161941310107 dipole="0.004435633790882006 -0.3090553259517558 0.03429833849416319" magmom=0.0 free_energy=-37.3161941310107 pbc="T T T"
C       12.48254132      11.82404718      10.76862322       1.47829220       0.32009359      -0.96186584       1.22725055       1.13980437       0.14241447       0.00000000
C       11.63924558      10.79125829      11.59346815       0.43228583      -1.75083960       0.04994119       0.05848763      -1.48282612       0.06903288       0.00000000
O       10.50301671      11.57779150      12.21442537      -1.04470789       0.87182448       1.16851926      -1.01498490      -0.96421211       0.76949178       0.00000000
H       11.74373684      12.18897698       9.84451806       0.29137405      -0.08195966       0.22582487       0.77292769       0.28617356       0.85226470       0.00000000
H       13.47502873      11.28675697      10.25232769      -0.11375576       0.10365764       0.15065261      -0.77441665       0.45138378       0.51319475       0.00000000
H       12.87602363      12.71449755      11.63713078      -0.04686117      -0.06076532      -0.20693396      -0.71942871      -1.15380058      -1.88526889       0.00000000
H       11.16333073       9.96230100      10.73161438       0.30211213       0.15818379       0.20563418       0.86439108       0.43333376       1.20793281       0.00000000