9
Lattice="23.296006118037088 0.0 0.0 0.0 22.649327160371357 0.0 0.0 0.0 22.71683509278982" Properties=species:S:1:pos:R:3:momenta:R:3:forces:R:3:magmoms:R:1 Energy:=T 4.1390592=T energy=-36.87896720608287 dipole="-0.0053106863295737695 -0.30347456942241613 0.09628719386481167" magmom=0.0 free_energy=-36.87896720608287 pbc="T T T"
C       12.41948749      11.83572384      10.79480003      -0.61915179       0.47840183       0.05673164       0.50916023      -0.77452716       0.79909453       0.00000000
C       11.61340655      10.82423852      11.59872119       0.21089794      -0.16471366      -0.04914919       0.04162804       0.82387207       0.40896801       0.00000000
O       10.50943971      11.52208764      12.18720232       0.63937401      -1.33479953      -0.40099835       0.11501077       4.74910382      -1.43183116       0.00000000
H       11.79412790      12.29811308      10.01020324      -0.00008913       0.14359388       0.15916495      -1.67089045       1.27405627      -2.04609075       0.00000000
H       13.31150943      11.34736022      10.31360142       0.35930105       0.08748069       0.01462226       1.67419263      -0.96806774      -0.97819892       0.00000000
H       12.80714268      12.63698125      11.48402424       0.27215149      -0.21444162       0.65122320       0.64097121       1.58590198       1.23534402       0.00000000
H       11.26235861      10.00691048      10.92516656       0.12632622       0.08209061      -0.05885870      -0.63051452      -2.43270911      -2.02555421       0.00000000
H       12.27173015      10.34319536      12.38983358       0.28594395      -0.20253036       0.11987015       1.67127708      -1.10698272       1.38992187       0.00000000
H       10.01319784      10.86755916      12.72537397       0.21120966      -0.10711665       0.23914035      -2.42953214      -3.15503270       2.60169991       0.00000000
9
Lattice="23.296006118037088 0.0 0.0 0.0 22.649327160371357 0.0 0.0 0.0 22.71683509278982" Properties=species:S:1:pos:R:3:momenta:R:3:forces:R:3:magmoms:R:1 Energy:=T 4.1390592=T energy=-37.01149583941228 dipole="-8.858393105925792e-05 -0.3018125430987711 0.10373703690932644" magmom=0.0 free_energy=-37.01149583941228 pbc="T T T"
C       12.41700688      11.83760227      10.79511225      -0.57335491       0.44482388       0.10264233       1.35578144      -0.59283491       1.07048159       0.00000000
C       11.61427310      10.82364773      11.59856128       0.22331707      -0.13392687      -0.02131211       0.46410419       0.42982833       0.72461414       0.00000000
O       10.51141112      11.51834810      12.18586341       0.63498338      -1.11003833      -0.46281906      -0.29380615       4.40362686      -1.08563341       0.00000000
H       11.79212435      12.30663390      10.01551021      -0.08223342       0.20817269       0.05819476      -1.67419103       1.35572367      -2.06561951       0.00000000
H       13.33101906      11.35046432      10.31314346       0.42881827       0.04617776      -0.02767990       1.15668913      -0.71387108      -0.74443056       0.00000000
H       12.82116983      12.62843039      11.51723231       0.29703136      -0.14663337       0.70051416       0.37218714       1.17538685       0.77188353       0.00000000
H       11.26775928      10.00799951      10.91987519       0.09519052      -0.03780617      -0.15788781      -0.63739434      -2.44973024      -2.00711152       0.00000000
H       12.28766207      10.33200283      12.39733713       0.35888068      -0.25039610       0.17747142       1.29885417      -0.84220730       0.95571834       0.00000000
H       10.02058183      10.85856507      12.74013869       0.09980971      -0.25247563       0.36000615      -2.10689912      -2.76427896       2.32019979       0.00000000
9
Lattice="23.296006118037088 0.0 0.0 0.0 22.649327160371357 0.0 0.0 0.0 22.71683509278982" Properties=species:S:1:pos:R:3:momenta:R:3:forces:R:3:magmoms:R:1 Energy:=T 4.1390592=T energy=-37.194986514925105 dipole="0.0038849906993799876 -0.29817854561222046 0.11007438878869429" magmom=0.0 free_energy=-37.194986514925105 pbc="T T T"
C       12.41479855      11.83936165      10.79563945      -0.48837423       0.42377764       0.15723538       2.10480382      -0.26421025       1.15265780       0.00000000
C       11.61523285      10.82314325      11.59854690       0.25530292      -0.12899478       0.01847128       0.83842435      -0.22898372       0.89544576       0.00000000
O       10.51333823      11.51527248      12.18436082       0.60436792      -0.91032187      -0.49995435      -0.95291722       3.72923103      -0.42659047       0.00000000
H       11.78611447      12.31839896      10.01587417      -0.16032139       0.27348314      -0.03855403      -1.50570897       1.30384984      -1.87418683       0.00000000
H       13.35329664      11.35186013      10.31090408       0.47142094       0.01783286      -0.05798291       0.57817748      -0.44039056      -0.48956934       0.00000000
H       12.83608761      12.62269221      11.55228750       0.30861507      -0.09973304       0.72593729       0.09952521       0.73448939       0.26339783       0.00000000
H       11.27163468      10.00322637      10.90978081       0.06600560      -0.15304064      -0.25127226      -0.55107461      -2.24285036      -1.79569222       0.00000000
H       12.30670213      10.31879492      12.40712770       0.41203071      -0.28433678       0.21294971       0.86552259      -0.53992580       0.48902963       0.00000000
H       10.02292403      10.84295608      12.76045562       0.01012785      -0.37057800       0.45968020      -1.54512740      -2.04508830       1.73872945       0.00000000
9
Lattice="23.296006118037088 0.0 0.0 0.0 22.649327160371357 0.0 0.0 0.0 22.71683509278982" Properties=species:S:1:pos:R:3:momenta:R:3:forces:R:3:magmoms:R:1 Energy:=T 4.1390592=T energy=-37.35851175663002 dipole="0.0065355081040453225 -0.29307566596099804 0.11532361323573517" magmom=0.0 free_energy=-37.35851175663002 pbc="T T T"
C       12.41301292      11.84106796      10.79639814      -0.37083603       0.42129533       0.21150283       2.68158949       0.16312544       1.05722250       0.00000000
C       11.61636099      10.82259280      11.59871234       0.30377189      -0.16045929       0.06264568       1.13533007      -1.05231476       0.90342518       0.00000000
O       10.51512167      11.51275911      12.18279391       0.53945766      -0.74720422      -0.50107965      -1.69035973       2.91324976       0.38076580       0.00000000
H       11.77650145      12.33328411      10.01175322      -0.22653487       0.33293008      -0.12131896      -1.19063819       1.11694998      -1.49616865       0.00000000
H       13.37695779      11.35220208      10.30749318       0.48588875       0.00249540      -0.07597926       0.01098120      -0.18418171      -0.24327832       0.00000000
H       12.85124355      12.61871167      11.58797299       0.30683105      -0.07323757       0.72651549      -0.17217426       0.34446013      -0.23985247       0.00000000
H       11.27419135       9.99308611      10.89538937       0.04257278      -0.25382219      -0.33050969      -0.40315702      -1.86117831      -1.43101615       0.00000000
H       12.32781337      10.30429496      12.41808852       0.44421218      -0.30351063       0.22557680       0.44497209      -0.24087224       0.02517084       0.00000000
H       10.02156876      10.82245321      12.78493332      -0.04978442      -0.44982952       0.52698634      -0.89462173      -1.18219376       1.00211244       0.00000000
9
Lattice="23.296006118037088 0.0 0.0 0.0 22.649327160371357 0.0 0.0 0.0 22.71683509278982" Properties=species:S:1:pos:R:3:momenta:R:3:forces:R:3:magmoms:R:1 Energy:=T 4.1390592=T energy=-37.448432201442216 dipole="0.00809387879490362 -0.2871041875783968 0.1197582686189964" magmom=0.0 free_energy=-37.448432201442216 pbc="T T T"
C       12.41176582      11.84280704      10.79736914      -0.22960217       0.44076661       0.25793917       3.06973885       0.62978452       0.83375914       0.00000000
C       11.61771712      10.82183100      11.59905922       0.36480498      -0.23352844       0.10386356       1.35006105      -1.92320911       0.77505040       0.00000000
O       10.51665027      11.51068497      12.18128440       0.43998934      -0.62384838      -0.46284745      -2.36019177       2.11004948       1.17612670       0.00000000
H       11.76403925      12.35084212      10.00405195      -0.27502207       0.38115327      -0.18278557      -0.78385844       0.84679568      -1.00687615       0.00000000
H       13.40064522      11.35210330      10.30350011       0.47409541      -0.00114341      -0.08259772      -0.49122975       0.03600192      -0.02623883       0.00000000
H       12.86598749      12.61555541      11.62308452       0.29232476      -0.06429250       0.70323386      -0.41855134       0.01980095      -0.70822266       0.00000000
H       11.27578328       9.97849206      10.87757351       0.02722256      -0.33347465      -0.38979239      -0.22193524      -1.38243089      -0.98309540       0.00000000
H       12.34998944      10.28921860      12.42910957       0.45670641      -0.30898695       0.21708021       0.06381823       0.01786551      -0.37116926       0.00000000
H       10.01807267      10.79912137      12.81180906      -0.07865944      -0.48737359       0.55803942      -0.28122744      -0.34667681       0.26243183       0.00000000
9
Lattice="23.296006118037088 0.0 0.0 0.0 22.649327160371357 0.0 0.0 0.0 22.71683509278982" Properties=species:S:1:pos:R:3:momenta:R:3:forces:R:3:magmoms:R:1 Energy:=T 4.1390592=T energy=-37.44406868381602 dipole="0.008963754535777947 -0.2808313552741341 0.1237605150713069" magmom=0.0 free_energy=-37.44406868381602 pbc="T T T"
C       12.41113521      11.84467259      10.79850758      -0.07342344       0.48274575       0.29181538       3.29017503       1.07969090       0.54574861       0.00000000
C       11.61934439      10.82068298      11.59956175       0.43460721      -0.34802234       0.13658799       1.49242669      -2.73921374       0.55755463       0.00000000
O       10.51782302      11.50892896      12.17995222       0.31120665      -0.53761089      -0.38829257      -2.88409955       1.40171567       1.85989890       0.00000000
H       11.74970128      12.37042650       9.99394124      -0.30261631       0.41526319      -0.21913720      -0.33983472       0.54222960      -0.47343559       0.00000000
H       13.42315714      11.35209066      10.29944425       0.43941445       0.00534071      -0.07956371      -0.92104908       0.22804475       0.14979015       0.00000000
H       12.87972983      12.61244653      11.65650128       0.26706052      -0.06926471       0.65882183      -0.61025955      -0.22227914      -1.10032504       0.00000000
H       11.27684412       9.96058988      10.85740512       0.02117155      -0.38858922      -0.42647928      -0.02447391      -0.86194587      -0.51086891       0.00000000
H       12.37231821      10.27418500      12.43924241       0.45140467      -0.30243789       0.19090621      -0.27971584       0.24882559      -0.69468869       0.00000000
H       10.01390360      10.77495994      12.83931279      -0.08009164      -0.48721173       0.55465095       0.22290527       0.35326799      -0.40041705       0.00000000
9
Lattice="23.296006118037088 0.0 0.0 0.0 22.649327160371357 0.0 0.0 0.0 22.71683509278982" Properties=species:S:1:pos:R:3:momenta:R:3:forces:R:3:magmoms:R:1 Energy:=T 4.1390592=T energy=-37.44406868381602 dipole="0.008963754535777947 -0.2808313552741341 0.1237605150713069" magmom=0.0 free_energy=-37.44406868381602 pbc="T T T"
C       12.41116560      11.84678399      10.79971933       0.08299355       0.55219853       0.29142848       3.29017503       1.07969090       0.54574861       0.00000000
C       11.62127530      10.81892013      11.60014549       0.50818438      -0.52521061       0.14044790       1.49242669      -2.73921374       0.55755463       0.00000000
O       10.51853219      11.50732829      12.17892550       0.14515437      -0.52363206      -0.28249582      -2.88409955       1.40171567       1.85989890       0.00000000
H       11.73511725      12.39088932       9.98338526      -0.28470831       0.41571676      -0.20030992      -0.33983472       0.54222960      -0.47343559       0.00000000
H       13.44301656      11.35284531      10.29595052       0.36842910       0.02993314      -0.05989087      -0.92104908       0.22804475       0.14979015       0.00000000
H       12.89184422      12.60853008      11.68692065       0.22831668      -0.09675706       0.58508779      -0.61025955      -0.22227914      -1.10032504       0.00000000
H       11.27808530       9.94131865      10.83662452       0.03414758      -0.38778717      -0.41404641      -0.02447391      -0.86194587      -0.51086891       0.00000000
H       12.39357904      10.26001153      12.44737288       0.41358555      -0.27431000       0.13716819      -0.27971584       0.24882559      -0.69468869       0.00000000
H       10.01083759      10.75243040      12.86512161      -0.03560696      -0.42380003       0.49226849       0.22290527       0.35326799      -0.40041705       0.00000000
9
Lattice="23.296006118037088 0.0 0.0 0.0 22.649327160371357 0.0 0.0 0.0 22.71683509278982" Properties=species:S:1:pos:R:3:momenta:R:3:forces:R:3:magmoms:R:1 Energy:=T 4.1390592=T energy=-37.44406868381602 dipole="0.008963754535777947 -0.2808313552741341 0.1237605150713069" magmom=0.0 free_energy=-37.44406868381602 pbc="T T T"
C       12.41181394      11.84918851      10.80089091       0.22382494       0.62103467       0.27291589       3.29017503       1.07969090       0.54574861       0.00000000
C       11.62350036      10.81638777      11.60071034       0.57600073      -0.71921923       0.12776006       1.49242669      -2.73921374       0.55755463       0.00000000
O       10.51871420      11.50571408      12.17821782      -0.02850620      -0.54592801      -0.19000100      -2.88409955       1.40171567       1.85989890       0.00000000
H       11.72195720      12.41093700       9.97442157      -0.24551605       0.39863006      -0.15528517      -0.33983472       0.54222960      -0.47343559       0.00000000
H       13.45905959      11.35500757      10.29360804       0.28502414       0.06279232      -0.03260933      -0.92104908       0.22804475       0.14979015       0.00000000
H       12.90197869      12.60301781      11.71351655       0.18748821      -0.13427204       0.50498635      -0.61025955      -0.22227914      -1.10032504       0.00000000
H       11.28017171       9.92280104      10.81705739       0.05481503      -0.35827454      -0.37769533      -0.02447391      -0.86194587      -0.51086891       0.00000000
H       12.41262104      10.24745421      12.45260909       0.36097982      -0.23662999       0.07369395      -0.27971584       0.24882559      -0.69468869       0.00000000
H       10.01043380      10.73366174      12.88728306       0.02693410      -0.33630049       0.40878834       0.22290527       0.35326799      -0.40041705       0.00000000
9
Lattice="23.296006118037088 0.0 0.0 0.0 22.649327160371357 0.0 0.0 0.0 22.71683509278982" Properties=species:S:1:pos:R:3:momenta:R:3:forces:R:3:magmoms:R:1 Energy:=T 4.1390592=T energy=-37.44406868381602 dipole="0.008963754535777947 -0.2808313552741341 0.1237605150713069" magmom=0.0 free_energy=-37.44406868381602 pbc="T T T"
C       12.41299606      11.85186286      10.80195126       0.33976021       0.67960124       0.23897469       3.29017503       1.07969090       0.54574861       0.00000000
C       11.62598588      10.81303829      11.60119032       0.63338181      -0.91961451       0.10064744       1.49242669      -2.73921374       0.55755463       0.00000000
O       10.51835717      11.50397653      12.17775898      -0.20242084      -0.60283524      -0.12770621      -2.88409955       1.40171567       1.85989890       0.00000000
H       11.71119236      12.42973477       9.96825313      -0.18864455       0.36555873      -0.08818744      -0.33983472       0.54222960      -0.47343559       0.00000000
H       13.47079141      11.35896426      10.29277282       0.19399900       0.10319428       0.00160749      -0.92104908       0.22804475       0.14979015       0.00000000
H       12.91011445      12.59544562      11.73613024       0.14798145      -0.18072921       0.42486012      -0.61025955      -0.22227914      -1.10032504       0.00000000
H       11.28342688       9.90640574      10.79981910       0.08067768      -0.30229111      -0.32036878      -0.02447391      -0.86194587      -0.51086891       0.00000000
H       12.42875557      10.23695256      12.45455416       0.29506695      -0.19058259       0.00385657      -0.27971584       0.24882559      -0.69468869       0.00000000
H       10.01346225      10.71965880      12.90495695       0.10249439      -0.23243346       0.31273071       0.22290527       0.35326799      -0.40041705       0.00000000
9
Lattice="23.296006118037088 0.0 0.0 0.0 22.649327160371357 0.0 0.0 0.0 22.71683509278982" Properties=species:S:1:pos:R:3:momenta:R:3:forces:R:3:magmoms:R:1 Energy:=T 4.1390592=T energy=-37.44406868381602 dipole="0.008963754535777947 -0.2808313552741341 0.1237605150713069" magmom=0.0 free_energy=-37.44406868381602 pbc="T T T"
C       12.41459253      11.85474635      10.80284526       0.42314503       0.71988665       0.19441864       3.29017503       1.07969090       0.54574861       0.00000000
C       11.62868021      10.80886708      11.60153345       0.67638137      -1.11607766       0.06354712       1.49242669      -2.73921374       0.55755463       0.00000000
O       10.51747143      11.50201293      12.17743376      -0.36960154      -0.69147235      -0.10673141      -2.88409955       1.40171567       1.85989890       0.00000000
H       11.70357429      12.44655974       9.96582793      -0.11929852       0.31943749      -0.00511943      -0.33983472       0.54222960      -0.47343559       0.00000000
H       13.47796428      11.36506358      10.29376468       0.10055062       0.15028442       0.04195567      -0.92104908       0.22804475       0.14979015       0.00000000
H       12.91639909      12.58540622      11.75491805       0.11307772      -0.23489095       0.35104363      -0.61025955      -0.22227914      -1.10032504       0.00000000
H       11.28803354       9.89334357      10.78583829       0.10862785      -0.22395749      -0.24663465      -0.02447391      -0.86194587      -0.51086891       0.00000000
H       12.44137453      10.22888244      12.45298490       0.21765077      -0.13757820      -0.06868179      -0.27971584       0.24882559      -0.69468869       0.00000000
H       10.02042161      10.71101171      12.91775784       0.18518984      -0.12113184       0.21376936       0.22290527       0.35326799      -0.40041705       0.00000000
9
Lattice="23.296006118037088 0.0 0.0 0.0 22.649327160371357 0.0 0.0 0.0 22.71683509278982" Properties=species:S:1:pos:R:3:momenta:R:3:forces:R:3:magmoms:R:1 Energy:=T 4.1390592=T energy=-37.02096545749195 dipole="0.02132897499441776 -0.26435584108220617 0.14381310523679425" magmom=0.0 free_energy=-37.02096545749195 pbc="T T T"
C       12.41645657      11.85775016      10.80354123       0.53119775       0.78175945       0.17104045       3.06772773       1.92044061       0.03408179       0.00000000
C       11.63151738      10.80391092      11.60171002       0.73202179      -1.31265334       0.02997678       1.55453678      -4.09635540      -0.53773113       0.00000000
O       10.51608798      11.49973119      12.17710370      -0.52747962      -0.75094687      -0.03578217      -3.12798542      -0.31177799       2.92131021       0.00000000
H       11.69956703      12.46086311       9.96775425      -0.05925841       0.28141828       0.06489419       0.93604102      -0.49447654       1.03265331       0.00000000
H       13.48058980      11.37360908      10.29686129       0.01346242       0.18780198       0.07229704      -1.64613027       0.50556018       0.35601429       0.00000000
H       12.92113358      12.57255611      11.77033852       0.07230807      -0.27411369       0.26839194      -1.01243121      -0.42266761      -1.95857489       0.00000000
H       11.29401237       9.88458167      10.77578520       0.13182600      -0.16503134      -0.18492221       0.37126219       0.60255927       0.87171374       0.00000000
H       12.44996506      10.22354593      12.44786130       0.15073933      -0.09144030      -0.13463541      -1.04133772       0.73648211      -1.20045153       0.00000000
H       10.03150851      10.70785482      12.92578822       0.24891849      -0.02577651       0.12658528       0.87030881       1.58877961      -1.55677394       0.00000000
9
Lattice="23.296006118037088 0.0 0.0 0.0 22.649327160371357 0.0 0.0 0.0 22.71683509278982" Properties=species:S:1:pos:R:3:momenta:R:3:forces:R:3:magmoms:R:1 Energy:=T 4.1390592=T energy=-37.051292479867826 dipole="0.026939289056151942 -0.2649868527430418 0.14746875759865333" magmom=0.0 free_energy=-37.051292479867826 pbc="T T T"
C       12.41893671      11.86113964      10.80424405       0.67625737       0.87394632       0.17567517       2.83939350       1.83359536       0.15465313       0.00000000
C       11.63466675      10.79813210      11.60177860       0.80582851      -1.50828454      -0.00106955       1.45102235      -3.87014272      -0.72653805       0.00000000
O       10.51423293      11.49740244      12.17721407      -0.67458648      -0.76870903       0.10469838      -2.86250347      -0.41153313       2.79934165       0.00000000
H       11.69779971      12.47398321       9.97215170      -0.01182708       0.25567136       0.11715776       0.99545886      -0.55398998       1.09562508       0.00000000
H       13.47927616      11.38336439      10.30080984      -0.06494501       0.21109568       0.08784440      -1.54677869       0.44300647       0.27710546       0.00000000
H       12.92344532      12.55869457      11.78107214       0.02291000      -0.29278672       0.17213144      -0.99915809      -0.33773595      -1.96134748       0.00000000
H       11.30087964       9.87726170      10.76781811       0.14971313      -0.13384044      -0.14045917       0.35713769       0.66759712       0.93891099       0.00000000
H       12.45606369      10.21997182      12.43986504       0.09954095      -0.05564934      -0.19186421      -1.04356420       0.72099842      -1.13002094       0.00000000
H       10.04467806      10.70849986      12.93009325       0.28927770       0.05084146       0.05177384       0.77319989       1.53125914      -1.48969921       0.00000000
9
Lattice="23.296006118037088 0.0 0.0 0.0 22.649327160371357 0.0 0.0 0.0 22.71683509278982" Properties=species:S:1:pos:R:3:momenta:R:3:forces:R:3:magmoms:R:1 Energy:=T 4.1390592=T energy=-37.12685428655021 dipole="0.03326054955682895 -0.26661117572583165 0.15073406838485306" magmom=0.0 free_energy=-37.12685428655021 pbc="T T T"
C       12.42198706      11.86489736      10.80497792       0.80820360       0.96059334       0.18681172       2.53372389       1.69484644       0.29885001       0.00000000
C       11.63810752      10.79157604      11.60170127       0.87402062      -1.69062072      -0.04152911       1.32589809      -3.55495512      -0.92105724       0.00000000
O       10.51194631      11.49501165      12.17774650      -0.80693809      -0.79013932       0.23705056      -2.52712165      -0.46115158       2.59030711       0.00000000
H       11.69841451      12.48577761       9.97917097       0.03753141       0.22767835       0.17166110       1.01451841      -0.58594198       1.12386103       0.00000000
H       13.47426108      11.39417980      10.30542150      -0.13674613       0.23095711       0.09885904      -1.37710834       0.36579130       0.17143316       0.00000000
H       12.92336610      12.54402482      11.78711227      -0.02512658      -0.30654213       0.07741242      -0.95698889      -0.22241217      -1.89580236       0.00000000
H       11.30860152       9.87153927      10.76209783       0.16662886      -0.10020363      -0.09345834       0.33170500       0.70216195       0.97505820       0.00000000
H       12.45966507      10.21812305      12.42916464       0.04940762      -0.02134063      -0.24469865      -0.99796632       0.67612139      -1.02150460       0.00000000
H       10.05969786      10.71280919      12.93083344       0.32397847       0.12285005      -0.01786443       0.63988568       1.40107644      -1.34611173       0.00000000
9
Lattice="23.296006118037088 0.0 0.0 0.0 22.649327160371357 0.0 0.0 0.0 22.71683509278982" Properties=species:S:1:pos:R:3:momenta:R:3:forces:R:3:magmoms:R:1 Energy:=T 4.1390592=T energy=-37.23445699029788 dipole="0.04014860885280701 -0.2692052864385539 0.15361761607733937" magmom=0.0 free_energy=-37.23445699029788 pbc="T T T"
C       12.42554626      11.86899545      10.80577181       0.92312806       1.03925143       0.20544962       2.14623267       1.50827036       0.46012281       0.00000000
C       11.64181456      10.78430606      11.60143897       0.93485275      -1.85480080      -0.09160397       1.15130959      -3.13078990      -1.11809237       0.00000000
O       10.50927868      11.49255133      12.17866946      -0.92115389      -0.81252757       0.35682358      -2.12397684      -0.45054330       2.28709240       0.00000000
H       11.70145705      12.49616986       9.98887963       0.08681968       0.19858436       0.22610473       0.99259993      -0.59882423       1.09319391       0.00000000
H       13.46595061      11.40587055      10.31044339      -0.19833119       0.24629387       0.10379324      -1.13075979       0.25875244       0.02949719       0.00000000
H       12.92099681      12.52882284      11.78861577      -0.07036698      -0.31374329      -0.01258688      -0.88529162      -0.07083357      -1.76915142       0.00000000
H       11.31711718       9.86749712      10.75871084       0.18204642      -0.06561340      -0.04540450       0.29612915       0.70642192       0.98179129       0.00000000
H       12.46087833      10.21789223      12.41601980       0.00262168       0.00999724      -0.29102289      -0.90725149       0.60002013      -0.86491185       0.00000000
H       10.07624891      10.72047127      12.92835240       0.35101150       0.18637206      -0.07826613       0.46095406       1.18566816      -1.11356785       0.00000000
9
Lattice="23.296006118037088 0.0 0.0 0.0 22.649327160371357 0.0 0.0 0.0 22.71683509278982" Properties=species:S:1:pos:R:3:momenta:R:3:forces:R:3:magmoms:R:1 Energy:=T 4.1390592=T energy=-37.35382746913669 dipole="0.04740957719418252 -0.272706005603828 0.15614758272116094" magmom=0.0 free_energy=-37.35382746913669 pbc="T T T"
C       12.42953648      11.87339645      10.80665810       1.01717301       1.10748760       0.23228012       1.68346805       1.27044446       0.63246945       0.00000000
C       11.64575282      10.77640733      11.60095213       0.98532103      -1.99503978      -0.15142042       0.90386090      -2.58002511      -1.31775437       0.00000000
O       10.50629082      11.49002308      12.17993724      -1.01416554      -0.83277591       0.45917134      -1.66364570      -0.37400980       1.88071541       0.00000000
H       11.70687486      12.50512914      10.00120428       0.13408543       0.17000960       0.27803993       0.93215701      -0.56479774       1.02171226       0.00000000
H       13.45493423      11.41818049      10.31553587      -0.24602789       0.25586726       0.10110675      -0.81154641       0.13109555      -0.13889653       0.00000000
H       12.91650902      12.51345136      11.78588571      -0.11115353      -0.31273439      -0.09491352      -0.77561936       0.11191804      -1.58335573       0.00000000
H       11.32634147       9.86514542      10.75767328       0.19554945      -0.03170699       0.00193664       0.25374164       0.67431565       0.94603549       0.00000000
H       12.45992054      10.21909725      12.40080523      -0.03859961       0.03671990      -0.32838373      -0.77136297       0.48818054      -0.65649734       0.00000000
H       10.09390301      10.73097065      12.92320661       0.36757400       0.23699877      -0.12481265       0.21350429       0.87595385      -0.78190036       0.00000000
9
Lattice="23.296006118037088 0.0 0.0 0.0 22.649327160371357 0.0 0.0 0.0 22.71683509278982" Properties=species:S:1:pos:R:3:momenta:R:3:forces:R:3:magmoms:R:1 Energy:=T 4.1390592=T energy=-37.46083409050373 dipole="0.054803813341805674 -0.2769793960684419 0.1583678436144661" magmom=0.0 free_energy=-37.46083409050373 pbc="T T T"
C       12.43386479      11.87805258      10.80767142       1.08694305       1.16242741       0.26738910       1.15770880       0.96681576       0.79723902       0.00000000
C       11.64987260      10.76799046      11.60020064       1.02241016      -2.10675392      -0.22114912       0.60648327      -1.96920047      -1.52173931       0.00000000
O       10.50305214      11.48743844      12.18148857      -1.08339879      -0.84726693       0.53872259      -1.15567240      -0.21609411       1.35877230       0.00000000
H       11.71452332      12.51273685      10.01597388       0.17719884       0.14379859       0.32554875       0.82350827      -0.50256789       0.91294328       0.00000000
H       13.44197584      11.43080414      10.32029598      -0.27654688       0.25828924       0.08932487      -0.43124836      -0.03246781      -0.34088507       0.00000000
H       12.91016519      12.49834770      11.77936670      -0.14563328      -0.30200106      -0.16611677      -0.62846583       0.32516475      -1.31618464       0.00000000
H       11.33617296       9.86440735      10.75889956       0.20662377      -0.00031505       0.04656367       0.19722715       0.60402776       0.87126755       0.00000000