9
Lattice="23.296006118037088 0.0 0.0 0.0 22.649327160371357 0.0 0.0 0.0 22.71683509278982" Properties=species:S:1:pos:R:3:momenta:R:3:forces:R:3:magmoms:R:1 Energy:=T 4.1390592=T energy=-36.87110391198667 dipole="-0.004709646208749203 -0.2964550929050266 0.09131117420662654" magmom=0.0 free_energy=-36.87110391198667 pbc="T T T"
C       12.41881572      11.83137446      10.79376038      -0.78551397      -0.57910065      -0.19267164       0.42459882      -0.52345771       0.99657977       0.00000000
C       11.61157758      10.82699281      11.60184747      -0.25161343       0.50868601       0.69643970      -0.57841471       0.81656943      -0.36313977       0.00000000
O       10.50579263      11.52406094      12.18910604      -0.55636390      -0.69910345       0.22773438      -0.19784511       4.45924939      -1.08222624       0.00000000
H       11.80337608      12.29997477      10.00987041       0.18665189       0.18175400       0.14930211      -1.79580863       1.27205600      -2.16955895       0.00000000
H       13.30383861      11.34838678      10.30991039       0.20698602       0.10521596      -0.06333074       1.88268677      -1.10381915      -1.06773613       0.00000000
H       12.80865950      12.65561760      11.45768200       0.30306709       0.16546696       0.11055809       0.63219864       1.48075514       1.23454640       0.00000000
H       11.24605794      10.01386681      10.91353288      -0.20439369       0.23165746      -0.29157177      -0.47440908      -2.15596524      -1.77896337       0.00000000
H       12.25299253      10.35010973      12.37958470      -0.08763773      -0.06986641      -0.07752206       2.11870697      -1.48349761       1.91746730       0.00000000
H        9.99810451      10.86552731      12.73103668      -0.09029449      -0.13922989       0.34622628      -2.09277435      -2.76457911       2.22970709       0.00000000
9
Lattice="23.296006118037088 0.0 0.0 0.0 22.649327160371357 0.0 0.0 0.0 22.71683509278982" Properties=species:S:1:pos:R:3:momenta:R:3:forces:R:3:magmoms:R:1 Energy:=T 4.1390592=T energy=-36.99051687874878 dipole="0.0012964040383134994 -0.2885642842681366 0.09398619059088198" magmom=0.0 free_energy=-36.99051687874878 pbc="T T T"
C       12.41564636      11.82895393      10.79307261      -0.74541177      -0.59505878      -0.13479343       1.20844367      -0.12638929       1.36033813       0.00000000
C       11.61049064      10.82915484      11.60465877      -0.28267531       0.53896333       0.67091297      -0.68648789       0.41638398      -0.67636019       0.00000000
O       10.50406980      11.52225100      12.18972356      -0.58133849      -0.49265723       0.18936105      -0.81917072       3.94765828      -0.48041329       0.00000000
H       11.81032177      12.31035250      10.01454910       0.09567610       0.24614759       0.03967385      -1.90890973       1.35018127      -2.29472530       0.00000000
H       13.31617636      11.35219257      10.30554714       0.29038578       0.05456768      -0.11146888       1.51351981      -0.95868116      -0.89254637       0.00000000
H       12.82418247      12.66545148      11.46454592       0.32777726       0.22562007       0.16163401       0.37404940       0.96880109       0.84536860       0.00000000
H       11.23553150      10.02257441      10.89719791      -0.22450482       0.13120170      -0.37309636      -0.34455706      -1.93479667      -1.54088307       0.00000000
H       12.25125751      10.34493059      12.37810178       0.01639671      -0.14357747       0.01615658       2.11778624      -1.51816561       1.89731625       0.00000000
H        9.99120104      10.85543572      12.75057393      -0.17929361      -0.25929227       0.44284977      -1.53144992      -2.12460402       1.70499686       0.00000000
9
Lattice="23.296006118037088 0.0 0.0 0.0 22.649327160371357 0.0 0.0 0.0 22.71683509278982" Properties=species:S:1:pos:R:3:momenta:R:3:forces:R:3:magmoms:R:1 Energy:=T 4.1390592=T energy=-37.15743247558884 dipole="0.006394457119322447 -0.2798536145896878 0.09603775638981053" magmom=0.0 free_energy=-37.15743247558884 pbc="T T T"
C       12.41271968      11.82650802      10.79265803      -0.66846141      -0.58858105      -0.06682979       1.92513070       0.39017557       1.40727890       0.00000000
C       11.60926584      10.83140050      11.60733425      -0.31630818       0.54331834       0.63260502      -0.68311046      -0.23903888      -0.88361706       0.00000000
O       10.50222347      11.52103624      12.19026864      -0.63958940      -0.31523279       0.18430916      -1.55292417       3.27742392       0.27469006       0.00000000
H       11.81269946      12.32396121      10.01373653       0.00424821       0.31065196      -0.07004259      -1.81421863       1.27656723      -2.17315034       0.00000000
H       13.33213594      11.35370426      10.29904804       0.35304917       0.01241498      -0.14953741       1.03826049      -0.75786217      -0.65768096       0.00000000
H       12.84060053      12.67760369      11.47343280       0.33961407       0.26044625       0.19330997       0.10796981       0.44939156       0.44454052       0.00000000
H       11.22418053      10.02665207      10.87717562      -0.23682382       0.04431141      -0.43976618      -0.15709755      -1.60355152      -1.17404673       0.00000000
H       12.25459034      10.33611849      12.38115911       0.11592049      -0.21557991       0.10383360       1.93502307      -1.41391944       1.67306931       0.00000000
H        9.98063282      10.84025996      12.77419123      -0.23778843      -0.34390228       0.50942858      -0.85057745      -1.32088680       1.00622661       0.00000000
9
Lattice="23.296006118037088 0.0 0.0 0.0 22.649327160371357 0.0 0.0 0.0 22.71683509278982" Properties=species:S:1:pos:R:3:momenta:R:3:forces:R:3:magmoms:R:1 Energy:=T 4.1390592=T energy=-37.31032341589245 dipole="0.010402335933211746 -0.27095462975913875 0.0976635934226426" magmom=0.0 free_energy=-37.31032341589245 pbc="T T T"
C       12.41017963      11.82414047      10.79252607      -0.55976792      -0.55469502      -0.00368503       2.50108832       0.98973212       1.16410349       0.00000000
C       11.60790385      10.83359815      11.60983227      -0.34729991       0.51166174       0.58687906      -0.57893564      -1.05008203      -0.97843655       0.00000000
O       10.50014300      11.52031560      12.19085514      -0.73303666      -0.17101678       0.21640484      -2.25243744       2.59534374       1.03231090       0.00000000
H       11.81073575      12.34062472      10.00772363      -0.07825592       0.36778006      -0.16806673      -1.54551672       1.04980456      -1.81859099       0.00000000
H       13.35058007      11.35340238      10.29097512       0.39116762      -0.01924697      -0.17527724       0.51399997      -0.53147662      -0.39049704       0.00000000
H       12.85727697      12.69083128      11.48338347       0.33850884       0.27073022       0.20621337      -0.15297705      -0.03060749       0.08091213       0.00000000
H       11.21245364      10.02689244      10.85434385      -0.23934406      -0.02474667      -0.48705069       0.05446859      -1.20863340      -0.75147425       0.00000000
H       12.26255366      10.32392289      12.38822009       0.20293463      -0.27984659       0.17658544       1.60836882      -1.20314994       1.28953283       0.00000000
H        9.96802918      10.82192334      12.80021641      -0.26359385      -0.38961544       0.54152831      -0.20027134      -0.54064533       0.30093942       0.00000000
9
Lattice="23.296006118037088 0.0 0.0 0.0 22.649327160371357 0.0 0.0 0.0 22.71683509278982" Properties=species:S:1:pos:R:3:momenta:R:3:forces:R:3:magmoms:R:1 Energy:=T 4.1390592=T energy=-37.402669109708555 dipole="0.013245969311413652 -0.26240296767840776 0.09915869617161643" magmom=0.0 free_energy=-37.402669109708555 pbc="T T T"
C       12.40814185      11.82197168      10.79262790      -0.42672051      -0.49052003       0.04252491       2.91687117       1.62360316       0.71765842       0.00000000
C       11.60642559      10.83558491      11.61213379      -0.37144154       0.43902806       0.53865160      -0.40416025      -1.90770824      -0.98548314       0.00000000
O       10.49772294      11.51998627      12.19159727      -0.85779595      -0.05854503       0.28335096      -2.82801287       1.98473334       1.69387059       0.00000000
H       11.80507363      12.35980040       9.99735887      -0.14459100       0.41088072      -0.24487003      -1.15578156       0.70534151      -1.30899439       0.00000000
H       13.37025420      11.35182869      10.28196774       0.40340150      -0.04028860      -0.18811918      -0.01581169      -0.32538078      -0.13245294       0.00000000
H       12.87358733      12.70398563      11.49352776       0.32530327       0.25919979       0.20238413      -0.38478050      -0.43893473      -0.23684651       0.00000000
H       11.20085708      10.02424057      10.82971381      -0.23135545      -0.07457082      -0.51317309       0.27084360      -0.82030681      -0.31228274       0.00000000
H       12.27436579      10.30884817      12.39836690       0.27166016      -0.33169873       0.22823004       1.19027364      -0.90837415       0.81353964       0.00000000
H        9.95494629      10.80229296      12.82696173      -0.25984265      -0.39953393       0.54076865       0.35302795       0.13674430      -0.33187428       0.00000000
9
Lattice="23.296006118037088 0.0 0.0 0.0 22.649327160371357 0.0 0.0 0.0 22.71683509278982" Properties=species:S:1:pos:R:3:momenta:R:3:forces:R:3:magmoms:R:1 Energy:=T 4.1390592=T energy=-37.41470924093961 dipole="0.015013706828181114 -0.2546043814614682 0.10078589631443816" magmom=0.0 free_energy=-37.41470924093961 pbc="T T T"
C       12.40668987      11.82012895      10.79287384      -0.27680956      -0.39575928       0.06449164       3.18780590       2.23524615       0.17687134       0.00000000
C       11.60486617      10.83718855      11.61423740      -0.38627622       0.32556149       0.49142297      -0.19993789      -2.71288005      -0.93776210       0.00000000
O       10.49487650      11.51995616      12.19259479      -1.00692034       0.02637234       0.37935109      -3.24463422       1.47327370       2.21544876       0.00000000
H       11.79664574      12.38066396       9.98386169      -0.19056365       0.43614752      -0.29483457      -0.71631801       0.32357369      -0.72566306       0.00000000
H       13.38989049      11.34947636      10.27264340       0.39128972      -0.05183261      -0.18898716      -0.47740479      -0.14471469       0.09710718       0.00000000
H       12.88897691      12.71608962      11.50310527       0.30198433       0.22994992       0.18462576      -0.56481410      -0.75217921      -0.48631053       0.00000000
H       11.18990866      10.01962571      10.80433649      -0.21328392      -0.10610463      -0.51811686       0.46506544      -0.46381359       0.11096249       0.00000000
H       12.28902623      10.29159972      12.41046051       0.31916830      -0.36803141       0.25607854       0.74435428      -0.57116610       0.32050786       0.00000000
H        9.94270820      10.78298981      12.85291289      -0.23211263      -0.37974090       0.51181836       0.77619428       0.66926788      -0.84704003       0.00000000
9
Lattice="23.296006118037088 0.0 0.0 0.0 22.649327160371357 0.0 0.0 0.0 22.71683509278982" Properties=species:S:1:pos:R:3:momenta:R:3:forces:R:3:magmoms:R:1 Energy:=T 4.1390592=T energy=-37.35445257806561 dipole="0.016074489850256536 -0.24801260287007632 0.10268550745431622" magmom=0.0 free_energy=-37.35445257806561 pbc="T T T"
C       12.40588640      11.81879025      10.79309766      -0.11441089      -0.25971723       0.04649062       3.34259272       2.75571488      -0.33571407       0.00000000
C       11.60328976      10.83818291      11.61616662      -0.38579392       0.16042936       0.45024708      -0.01119002      -3.36961791      -0.87772884       0.00000000
O       10.49152043      11.52010924      12.19394921      -1.17902801       0.07600938       0.50450495      -3.49260719       1.06465827       2.57740951       0.00000000
H       11.78710402      12.40180410       9.96940807      -0.20350175       0.43225198      -0.30153421      -0.31227915      -0.06621230      -0.19911402       0.00000000
H       13.40786935      11.34699518      10.26381804       0.34758806      -0.05067423      -0.17415966      -0.87178775       0.01015406       0.28387649       0.00000000
H       12.90285827      12.72606572      11.51124386       0.26731605       0.18057915       0.15037094      -0.71603584      -0.98422592      -0.67862077       0.00000000
H       11.18023046      10.01434095      10.77972071      -0.18335215      -0.11232549      -0.49327665       0.62232360      -0.15725007       0.48601680       0.00000000
H       12.30487548      10.27343908      12.42269915       0.33298971      -0.37925006       0.24803691       0.31360931      -0.26562204      -0.12818613       0.00000000
H        9.93276443      10.76587133      12.87630974      -0.17791024      -0.32517968       0.45044232       1.06588405       1.06522000      -1.21157292       0.00000000
9
Lattice="23.296006118037088 0.0 0.0 0.0 22.649327160371357 0.0 0.0 0.0 22.71683509278982" Properties=species:S:1:pos:R:3:momenta:R:3:forces:R:3:magmoms:R:1 Energy:=T 4.1390592=T energy=-37.247055964460124 dipole="0.016642827071653425 -0.24260742824620143 0.10481883328044175" magmom=0.0 free_energy=-37.247055964460124 pbc="T T T"
C       12.40575421      11.81800497      10.79325405       0.05116241      -0.11407606       0.01884861       3.39988697       3.17508788      -0.78992473       0.00000000
C       11.60171111      10.83850056      11.61791956      -0.38225707      -0.01740701       0.40854879       0.15521764      -3.87223855      -0.82031000       0.00000000
O       10.48763778      11.52042283      12.19569223      -1.35303161       0.11993920       0.63678005      -3.59317134       0.72425277       2.80910016       0.00000000
H       11.77681503      12.42278578       9.95447798      -0.20995806       0.42038279      -0.29963194       0.04936542      -0.41712508       0.27657802       0.00000000
H       13.42376203      11.34453829      10.25567200       0.29697869      -0.04717519      -0.15669205      -1.18912848       0.13233420       0.42743969       0.00000000
H       12.91502616      12.73368658      11.51775852       0.22917755       0.12807436       0.11370125      -0.83704120      -1.15387551      -0.81464321       0.00000000
H       11.17204147      10.00867989      10.75626797      -0.14994738      -0.11407589      -0.46194770       0.73798632       0.08597011       0.78976137       0.00000000
H       12.32147520      10.25464280      12.43463105       0.33914767      -0.38477095       0.23224194      -0.06284512       0.04080003      -0.51501717       0.00000000
H        9.92537131      10.75130191      12.89680731      -0.12097192      -0.26596867       0.38445353       1.25275938       1.34597206      -1.47562409       0.00000000
9
Lattice="23.296006118037088 0.0 0.0 0.0 22.649327160371357 0.0 0.0 0.0 22.71683509278982" Properties=species:S:1:pos:R:3:momenta:R:3:forces:R:3:magmoms:R:1 Energy:=T 4.1390592=T energy=-37.122750690863356 dipole="0.01708290881847831 -0.23846974430475099 0.10705723739529083" magmom=0.0 free_energy=-37.122750690863356 pbc="T T T"
C       12.40630481      11.81785733      10.79325180       0.21750367       0.04923179      -0.02883556       3.37386537       3.47513817      -1.15187089       0.00000000
C       11.60016363      10.83804056      11.61950776      -0.37129552      -0.21585690       0.36916547       0.29115894      -4.20904261      -0.78345830       0.00000000
O       10.48321340      11.52084561      12.19785877      -1.52882759       0.14854212       0.77785145      -3.56559655       0.44051579       2.93561257       0.00000000
H       11.76664416      12.44276929       9.94020973      -0.20011656       0.39246859      -0.27630772       0.35140023      -0.71959766       0.67323165       0.00000000
H       13.43680914      11.34239808      10.24854881       0.23302426      -0.03858787      -0.13301647      -1.41522515       0.21735875       0.53667810       0.00000000
H       12.92519102      12.73854623      11.52232375       0.18636987       0.06886653       0.07165777      -0.90617409      -1.25718719      -0.89745243       0.00000000
H       11.16561848      10.00322455      10.73470513      -0.11181425      -0.10510225      -0.41698673       0.81487188       0.27945457       1.04114012       0.00000000
H       12.33792453      10.23594416      12.44533052       0.32814077      -0.37643686       0.19939045      -0.38537792       0.29858110      -0.82276162       0.00000000
H        9.92097604      10.73995338      12.91377373      -0.05689274      -0.19557514       0.30783417       1.35667441       1.52059504      -1.64447124       0.00000000
9
Lattice="23.296006118037088 0.0 0.0 0.0 22.649327160371357 0.0 0.0 0.0 22.71683509278982" Properties=species:S:1:pos:R:3:momenta:R:3:forces:R:3:magmoms:R:1 Energy:=T 4.1390592=T energy=-37.01118853729937 dipole="0.017751659808602806 -0.23563592223711455 0.10919886081041212" magmom=0.0 free_energy=-37.01118853729937 pbc="T T T"
C       12.40753297      11.81840759      10.79301823       0.38070086       0.22420783      -0.09176792       3.27185423       3.65024011      -1.41086230       0.00000000
C       11.59867463      10.83673526      11.62093863      -0.35445005      -0.42689738       0.33089018       0.39482287      -4.38495234      -0.77518873       0.00000000
O       10.47825144      11.52133481      12.20046790      -1.70056154       0.16451568       0.92298065      -3.42775742       0.20996015       2.97434226       0.00000000
H       11.75731419      12.46103081       9.92755252      -0.17705032       0.35110456      -0.23555839       0.58790361      -0.96482949       0.98616329       0.00000000
H       13.44646963      11.34077801      10.24270989       0.15969717      -0.02648371      -0.10496714      -1.57080211       0.27554702       0.60554714       0.00000000
H       12.93318741      12.74039744      11.52474138       0.14101622       0.00616438       0.02671092      -0.94071812      -1.29617109      -0.93287383       0.00000000
H       11.16114547       9.99843795      10.71563371      -0.07048299      -0.08775854      -0.36090507       0.86822029       0.42681658       1.24261863       0.00000000
H       12.35345165      10.21796002      12.45406112       0.30256313      -0.35669874       0.15319853      -0.65619515       0.50519517      -1.05826705       0.00000000
H        9.91982727      10.73224363      12.92680494       0.01047882      -0.11844737       0.22459869       1.38683205       1.62020398      -1.74504615       0.00000000
9
Lattice="23.296006118037088 0.0 0.0 0.0 22.649327160371357 0.0 0.0 0.0 22.71683509278982" Properties=species:S:1:pos:R:3:momenta:R:3:forces:R:3:magmoms:R:1 Energy:=T 4.1390592=T energy=-36.936097346049976 dipole="0.01894099684983243 -0.23413842234237012 0.1110085607407144" magmom=0.0 free_energy=-36.936097346049976 pbc="T T T"
C       12.40941821      11.81969092      10.79250132       0.53708084       0.40477078      -0.16498485       3.09625504       3.70264867      -1.57067915       0.00000000
C       11.59726491      10.83454935      11.62221381      -0.33327410      -0.64295963       0.29233281       0.46750437      -4.41353950      -0.79494541       0.00000000
O       10.47277268      11.52185567      12.20352547      -1.86352324       0.17026650       1.06789411      -3.20837260       0.02422481       2.92682680       0.00000000
H       11.74939107      12.47698351       9.91725518      -0.14360589       0.29919415      -0.18158520       0.77402106      -1.14906736       1.21173417       0.00000000
H       13.45237121      11.33981731      10.23832004       0.08049225      -0.01215673      -0.07447583      -1.65458249       0.30787680       0.63612087       0.00000000
H       12.93893268      12.73914693      11.52492666       0.09467448      -0.05710148      -0.01891810      -0.94641133      -1.28014250      -0.92523243       0.00000000
H       11.15875010       9.99467271      10.69953588      -0.02720588      -0.06434194      -0.29588043       0.89411113       0.52675469       1.40531632       0.00000000
H       12.36740851      10.20118481      12.46025931       0.26513393      -0.32777431       0.09732279      -0.86799762       0.67266608      -1.21710586       0.00000000
H        9.92199717      10.72841100      12.93566028       0.07797535      -0.03808339       0.13834575       1.36176291       1.65237964      -1.76734771       0.00000000
9
Lattice="23.296006118037088 0.0 0.0 0.0 22.649327160371357 0.0 0.0 0.0 22.71683509278982" Properties=species:S:1:pos:R:3:momenta:R:3:forces:R:3:magmoms:R:1 Energy:=T 4.1390592=T energy=-36.91298232811595 dipole="0.020862153715876942 -0.2340113939205553 0.11226846795213992" magmom=0.0 free_energy=-36.91298232811595 pbc="T T T"
C       12.41192526      11.82171784      10.79166897       0.68299173       0.58500275      -0.24389508       2.84553151       3.63676175      -1.64270481       0.00000000
C       11.59594908      10.83147709      11.62332935      -0.30920308      -0.85725078       0.25224528       0.51271647      -4.31282965      -0.83750003       0.00000000
O       10.46681021      11.52238017      12.20702431      -2.01397849       0.16786607       1.20847243      -2.91846945      -0.12197534       2.79780661       0.00000000
H       11.74332018      12.49018650       9.90985752      -0.10225208       0.23936153      -0.11830725       0.90998990      -1.28743780       1.36507218       0.00000000
H       13.45431339      11.33959337      10.23545242      -0.00117236       0.00317967      -0.04335038      -1.67096563       0.31665244       0.63137028       0.00000000
H       12.94241319      12.73483306      11.52289786       0.04889305      -0.11824524      -0.06318746      -0.91790127      -1.20975527      -0.87750556       0.00000000
H       11.15849433       9.99216800      10.68680095       0.01664498      -0.03680209      -0.22399330       0.89158468       0.59472386       1.52207268       0.00000000
H       12.37928826      10.18601928      12.46354497       0.21874176      -0.29172679       0.03504723      -1.02118551       0.79526180      -1.31888107       0.00000000
H        9.92742576      10.72853250      12.94028637       0.14298225       0.04226032       0.05261508       1.28544974       1.61937891      -1.72377879       0.00000000
9
Lattice="23.296006118037088 0.0 0.0 0.0 22.649327160371357 0.0 0.0 0.0 22.71683509278982" Properties=species:S:1:pos:R:3:momenta:R:3:forces:R:3:magmoms:R:1 Energy:=T 4.1390592=T energy=-36.947187341175066 dipole="0.023636830785425944 -0.2353197862899015 0.1128079244510878" magmom=0.0 free_energy=-36.947187341175066 pbc="T T T"
C       12.41500377      11.82447512      10.79050672       0.81468170       0.75909647      -0.32451305       2.51715064       3.45268657      -1.64022238       0.00000000
C       11.59473622      10.82753869      11.62427669      -0.28346331      -1.06364651       0.20960663       0.53545889      -4.09202200      -0.89883184       0.00000000
O       10.46040773      11.52288629      12.21094497      -2.14702142       0.15952745       1.33989800      -2.49930767      -0.21758990       2.55410848       0.00000000
H       11.73942688      12.50030866       9.90572645      -0.05551279       0.17398594      -0.04891079       0.99332857      -1.37478867       1.46089202       0.00000000
H       13.45225697      11.34012716      10.23409566      -0.08200913       0.01836264      -0.01327912      -1.62087105       0.30162876       0.59319247       0.00000000
H       12.94369718      12.72762425      11.51876921       0.00538068      -0.17463843      -0.10403207      -0.85401024      -1.08668943      -0.78576935       0.00000000
H       11.16037211       9.99108645      10.67770832       0.05989865      -0.00673928      -0.14754111       0.86979229       0.62949420       1.59121535       0.00000000
H       12.38872432      10.17275680      12.46367457       0.16578161      -0.25036108      -0.03091452      -1.13545891       0.88923374      -1.36721499       0.00000000
H        9.93593041      10.73252916      12.94078748       0.20293996       0.11928882      -0.02907993       1.15614963       1.51737726      -1.60300716       0.00000000
9
Lattice="23.296006118037088 0.0 0.0 0.0 22.649327160371357 0.0 0.0 0.0 22.71683509278982" Properties=species:S:1:pos:R:3:momenta:R:3:forces:R:3:magmoms:R:1 Energy:=T 4.1390592=T energy=-37.03168406449511 dipole="0.02727425433430005 -0.23810934533412847 0.11253557786240928" magmom=0.0 free_energy=-37.03168406449511 pbc="T T T"
C       12.41854879      11.82789572      10.78902536       0.91888943       0.91398354      -0.40100403       2.11487861       3.15405402      -1.57707952       0.00000000
C       11.59362976      10.82281385      11.62503883      -0.25734359      -1.24768702       0.16258554       0.53955042      -3.75450821      -0.96912937       0.00000000
O       10.45366549      11.52335326      12.21522626      -2.24546379       0.14555283       1.44927407      -2.00109265      -0.26728197       2.22416707       0.00000000
H       11.73792233      12.50711775       9.90509213      -0.00547792       0.10507563       0.02376480       1.03438863      -1.41196996       1.49790051       0.00000000
H       13.44646607      11.34133343      10.23406979      -0.15588797       0.03123284       0.01231481      -1.50818745       0.26369847       0.52310590       0.00000000
H       12.94305051      12.71802052      11.51291502      -0.03176392      -0.21944903      -0.13613094      -0.75302081      -0.90985692      -0.65074954       0.00000000
H       11.16427573       9.99149376      10.67244095       0.10050201       0.02400152      -0.06837853       0.83010002       0.63696727       1.61781950       0.00000000
H       12.39539271      10.16166809      12.46056594       0.10701127      -0.20410007      -0.09752548      -1.21555719       0.95629007      -1.37332012       0.00000000
H        9.94698746      10.73995681      12.93767773       0.25063052       0.18518304      -0.09824757       0.96497926       1.33318503      -1.40179055       0.00000000
9
Lattice="23.296006118037088 0.0 0.0 0.0 22.649327160371357 0.0 0.0 0.0 22.71683509278982" Properties=species:S:1:pos:R:3:momenta:R:3:forces:R:3:magmoms:R:1 Energy:=T 4.1390592=T energy=-37.15475975898561 dipole="0.03174560036019745 -0.24248933098652056 0.11145707397014883" magmom=0.0 free_energy=-37.15475975898561 pbc="T T T"
C       12.42251853      11.83194975      10.78722728       1.01109159       1.05904047      -0.47565174       1.63978005       2.75295758      -1.46272638       0.00000000
C       11.59263165      10.81733500      11.62560633      -0.23105784      -1.42095573       0.11321967       0.53085830      -3.30134416      -1.04114889       0.00000000
O       10.44662155      11.52377992      12.21984289      -2.33098431       0.13331253       1.54865360      -1.48147579      -0.23116784       1.82276819       0.00000000
H       11.73889307      12.51054800       9.90804227       0.04527919       0.03594402       0.09676933       1.03254373      -1.40320894       1.47499152       0.00000000
H       13.43706610      11.34317072      10.23529571      -0.22553791       0.04258172       0.03550979      -1.32809909       0.19845059       0.42144041       0.00000000
H       12.94060187      12.70623952      11.50550361      -0.06529933      -0.25839201      -0.16350739      -0.61260868      -0.67598000      -0.46407494       0.00000000
H       11.17016576       9.99342533      10.67104501       0.13981917       0.05466493       0.01077345       0.77097441       0.61170900       1.60540918       0.00000000
H       12.39915229      10.15286778      12.45417097       0.04635475      -0.15626920      -0.16407378      -1.25449887       0.99147994      -1.33666126       0.00000000
H        9.96035370      10.75057476      12.93121351       0.29180553       0.24368495      -0.15970398       0.71175053       1.04913095      -1.10083886       0.00000000
9
Lattice="23.296006118037088 0.0 0.0 0.0 22.649327160371357 0.0 0.0 0.0 22.71683509278982" Properties=species:S:1:pos:R:3:momenta:R:3:forces:R:3:magmoms:R:1 Energy:=T 4.1390592=T energy=-37.294816566941755 dipole="0.03694435396926921 -0.24851473824712825 0.10966893260676909" magmom=0.0 free_energy=-37.294816566941755 pbc="T T T"
C       12.42681758      11.83655664      10.78513544       1.07843011       1.18240686      -0.54355264       1.10238056       2.27077129      -1.30233545       0.00000000
C       11.59174015      10.81119315      11.62596475      -0.20537768      -1.56994147       0.06055161       0.51488990      -2.76565647      -1.10360087       0.00000000
O       10.43935425      11.52417174      12.22473433      -2.39063480       0.12596661       1.62590608      -0.94761307      -0.06797283       1.32310934       0.00000000
H       11.74233467      12.51062040       9.91452205       0.09488358      -0.03152590       0.16733147       0.98744703      -1.34430270       1.39844155       0.00000000
H       13.42448799      11.34548291      10.23753012      -0.28478905       0.05004814       0.05273661      -1.08472722       0.10559741       0.28007059       0.00000000
H       12.93668726      12.69284090      11.49698166      -0.09104052      -0.28404005      -0.18030455      -0.43562476      -0.36846005      -0.21993935       0.00000000
H       11.17790074       9.99682072      10.67349080       0.17577967       0.08325962       0.08819600       0.69340974       0.55272455       1.54739363       0.00000000