9
Lattice="23.296006118037088 0.0 0.0 0.0 22.649327160371357 0.0 0.0 0.0 22.71683509278982" Properties=species:S:1:pos:R:3:momenta:R:3:forces:R:3:magmoms:R:1 Energy:=T 4.1390592=T energy=-36.95708367587539 dipole="-0.010636395035399716 -0.304187833588571 0.08666114411240873" magmom=0.0 free_energy=-36.95708367587539 pbc="T T T"
C       12.41978765      11.83982799      10.79412373      -0.56814091       1.47705940      -0.13010892      -0.40281810      -0.97965156      -0.07422269       0.00000000
C       11.61275485      10.82430319      11.59137574       0.04332621      -0.15072150      -1.84825548      -0.29213564       0.74957823       0.29779314       0.00000000
O       10.51042807      11.52614420      12.18765808       0.94716973      -0.03143249      -0.23767554      -0.46199858       4.01279100      -0.82679583       0.00000000
H       11.78393472      12.29547951       9.99200093      -0.20090318       0.08216980      -0.20362341      -1.32923791       0.97380747      -1.60653338       0.00000000
H       13.28564588      11.33287355      10.30463792      -0.16384222      -0.21274265      -0.17312701       1.98683998      -1.08617061      -1.13226149       0.00000000
H       12.80680928      12.64904778      11.44376400       0.27204735       0.04468523      -0.16394259       0.91537996       2.05317086       1.68862977       0.00000000
H       11.25373419       9.99307941      10.92382095      -0.04776622      -0.19414323      -0.08257389      -0.51183870      -2.12184877      -1.86665333       0.00000000
H       12.25721602      10.34127645      12.38335683      -0.00791225      -0.24442634      -0.00900754       1.83540390      -1.20929905       1.55486253       0.00000000
H        9.99518138      10.85955082      12.73230088      -0.14319818      -0.25299756       0.36427919      -1.80403999      -2.40243102       1.90827468       0.00000000
9
Lattice="23.296006118037088 0.0 0.0 0.0 22.649327160371357 0.0 0.0 0.0 22.71683509278982" Properties=species:S:1:pos:R:3:momenta:R:3:forces:R:3:magmoms:R:1 Energy:=T 4.1390592=T energy=-37.1364790013617 dipole="-0.009688348666099642 -0.3035343723450009 0.0847555101177341" magmom=0.0 free_energy=-37.1364790013617 pbc="T T T"
C       12.41742405      11.84576938      10.79358425      -0.58636684       1.42920558      -0.14658648      -0.33937850      -0.96905260      -0.59677725       0.00000000
C       11.61290268      10.82376216      11.58384804       0.03191643      -0.12471752      -1.82707027      -0.17249344       0.30935643       0.56491128       0.00000000
O       10.51330085      11.52635021      12.18686614       0.90584682       0.14537964      -0.26026975      -1.22075367       3.18735669      -0.09328619       0.00000000
H       11.77255555      12.30064829       9.98015743      -0.25942953       0.12600346      -0.27367116      -1.05407361       0.81118792      -1.24595276       0.00000000
H       13.28004012      11.32120834      10.29484779      -0.07301053      -0.26162055      -0.22545604       1.71201004      -0.90423621      -0.99868256       0.00000000
H       12.82115968      12.65368162      11.43779655       0.31636809       0.14399614      -0.08199640       0.88945022       1.99097042       1.64838454       0.00000000
H       11.25079443       9.98108125      10.91756420      -0.07043278      -0.29197983      -0.17070800      -0.41118966      -1.86225543      -1.72234604       0.00000000
H       12.25902655      10.32792018      12.38477834       0.07668921      -0.29888919       0.05962007       1.60973888      -1.00853824       1.23979238       0.00000000
H        9.98604571      10.84434935      12.75233314      -0.21364881      -0.34988460       0.44001438      -1.06485219      -1.54300521       1.17581527       0.00000000
9
Lattice="23.296006118037088 0.0 0.0 0.0 22.649327160371357 0.0 0.0 0.0 22.71683509278982" Properties=species:S:1:pos:R:3:momenta:R:3:forces:R:3:magmoms:R:1 Energy:=T 4.1390592=T energy=-37.32303600869784 dipole="-0.008421154782377625 -0.3011426456834894 0.08250021634759523" magmom=0.0 free_energy=-37.32303600869784 pbc="T T T"
C       12.41499230      11.85151615      10.79292493      -0.59760617       1.38583012      -0.18878533      -0.11830980      -0.79728366      -1.12164529       0.00000000
C       11.61301587      10.82328324      11.57643380       0.02642526      -0.12583450      -1.79340352      -0.05111817      -0.35484217       0.80606687       0.00000000
O       10.51598958      11.52703677      12.18606014       0.82795183       0.28129681      -0.24662649      -1.95128816       2.34746543       0.64886725       0.00000000
H       11.75865399      12.30775822       9.96533239      -0.30265813       0.16073254      -0.32426117      -0.70628248       0.60305068      -0.81417467       0.00000000
H       13.27853119      11.30737931      10.28266782       0.00125348      -0.29942899      -0.26927969       1.31217052      -0.63539993      -0.78590507       0.00000000
H       12.83763852      12.66307983      11.43577367       0.35734054       0.23555447      -0.00585606       0.77903088       1.73747003       1.45220424       0.00000000
H       11.24687070       9.96462674      10.90718590      -0.08693975      -0.37322968      -0.24853456      -0.26100742      -1.44640285      -1.44690894       0.00000000
H       12.26468918      10.31215049      12.38916665       0.14806253      -0.34194863       0.11036053       1.29672683      -0.74492910       0.82646218       0.00000000
H        9.97436187      10.82545549      12.77517912      -0.24828855      -0.40444924       0.47925416      -0.34574788      -0.67897723       0.42210820       0.00000000
9
Lattice="23.296006118037088 0.0 0.0 0.0 22.649327160371357 0.0 0.0 0.0 22.71683509278982" Properties=species:S:1:pos:R:3:momenta:R:3:forces:R:3:magmoms:R:1 Energy:=T 4.1390592=T energy=-37.459905571900606 dipole="-0.0069261976254675435 -0.29739086760212236 0.08022268277041895" magmom=0.0 free_energy=-37.459905571900606 pbc="T T T"
C       12.41253678      11.85710281      10.79204035      -0.59500802       1.35341092      -0.25561509       0.22411167      -0.52289199      -1.59979768       0.00000000
C       11.61311879      10.82273307      11.56918144       0.02654252      -0.16219355      -1.74816581       0.05589345      -1.12577168       1.03610408       0.00000000
O       10.51838411      11.52807725      12.18535196       0.71742947       0.37814411      -0.19897692      -2.54940584       1.59635250       1.29151972       0.00000000
H       11.74306231      12.31631125       9.94855904      -0.32826176       0.18509438      -0.35325312      -0.33634903       0.38901265      -0.36643610       0.00000000
H       13.28016227      11.29202978      10.26860719       0.05459057      -0.32301567      -0.30171693       0.85982393      -0.32509759      -0.53500506       0.00000000
H       12.85598157      12.67663578      11.43722590       0.39035994       0.31087919       0.05757652       0.56558547       1.32990507       1.13089880       0.00000000
H       11.24232238       9.94471100      10.89334517      -0.09527173      -0.43192737      -0.31112803      -0.07828768      -0.94388565      -1.10202383       0.00000000
H       12.27345486      10.29459818      12.39553268       0.20313734      -0.37126628       0.13987422       0.94603109      -0.44894496       0.37539475       0.00000000
H        9.96185065      10.80493684      12.79903520      -0.25010144      -0.41937464       0.48366672       0.27192331       0.07118490      -0.24242016       0.00000000
9
Lattice="23.296006118037088 0.0 0.0 0.0 22.649327160371357 0.0 0.0 0.0 22.71683509278982" Properties=species:S:1:pos:R:3:momenta:R:3:forces:R:3:magmoms:R:1 Energy:=T 4.1390592=T energy=-37.516856664967385 dipole="-0.005386938976016461 -0.2927731425588105 0.0782306167759351" magmom=0.0 free_energy=-37.516856664967385 pbc="T T T"
C       12.41012627      11.86258446      10.79083449      -0.57402614       1.33591766      -0.34410728       0.63031295      -0.18946886      -2.00378304       0.00000000
C       11.61323294      10.82195681      11.56213716       0.03134126      -0.23603485      -1.69250839       0.13952059      -1.88119544       1.23037874       0.00000000
O       10.52039428      11.52935841      12.18483850       0.58173379       0.44110738      -0.12335912      -2.97639659       0.96763912       1.78779006       0.00000000
H       11.72666575      12.32579518       9.93090880      -0.33619808       0.19930014      -0.36073361       0.01316584       0.18947439       0.06181559       0.00000000
H       13.28385090      11.27590229      10.25326630       0.08603982      -0.33065545      -0.32160855       0.42085295       0.01399036      -0.27502201       0.00000000
H       12.87567807      12.69337419      11.44138435       0.41160781       0.36390643       0.10374053       0.29967105       0.82947125       0.74899301       0.00000000
H       11.23758672       9.92253655      10.87686730      -0.09457760      -0.46600308      -0.35648750       0.10655403      -0.44374600      -0.74510528       0.00000000
H       12.28448438      10.27597156      12.40279703       0.24112546      -0.38622280       0.14771493       0.60092200      -0.16011499      -0.05610499       0.00000000
H        9.94999014      10.78458854      12.82231117      -0.22512775      -0.40173362       0.45871335       0.74505590       0.64719304      -0.77373121       0.00000000
9
Lattice="23.296006118037088 0.0 0.0 0.0 22.649327160371357 0.0 0.0 0.0 22.71683509278982" Properties=species:S:1:pos:R:3:momenta:R:3:forces:R:3:magmoms:R:1 Energy:=T 4.1390592=T energy=-37.48994710027087 dipole="-0.00395010152009727 -0.2878243182809395 0.07673569590982064" magmom=0.0 free_energy=-37.48994710027087 pbc="T T T"
C       12.40784235      11.86802806      10.78922621      -0.53288254       1.33501805      -0.45012661       1.04513779       0.15283488      -2.31353841       0.00000000
C       11.61337510      10.82080276      11.55533997       0.03949208      -0.34459793      -1.62824998       0.19239728      -2.53971285       1.38635373       0.00000000
O       10.52195571      11.53078546      12.18459459       0.42910983       0.47603584      -0.02700931      -3.23875985       0.45471831       2.13576907       0.00000000
H       11.71030069      12.33573252       9.91340650      -0.32799395       0.20425417      -0.34844121       0.32092315       0.01226402       0.43875578       0.00000000
H       13.28854663      11.25980827      10.23726728       0.09670276      -0.32186736      -0.32890661       0.01336354       0.34387833      -0.02216972       0.00000000
H       12.89609167      12.71209751      11.44733514       0.41910880       0.39196725       0.13091663       0.00578428       0.31322215       0.35767258       0.00000000
H       11.23310604       9.89930023      10.85860640      -0.08534969      -0.47590126      -0.38460356       0.26922508       0.04067181      -0.39983785       0.00000000
H       12.29695190      10.25696179      12.40992711       0.26278167      -0.38714339       0.13553634       0.28096258       0.12262680      -0.43983184       0.00000000
H        9.93991254      10.76578896      12.84373561      -0.17999335      -0.35882563       0.41057623       1.09290821       1.10010706      -1.18650991       0.00000000
9
Lattice="23.296006118037088 0.0 0.0 0.0 22.649327160371357 0.0 0.0 0.0 22.71683509278982" Properties=species:S:1:pos:R:3:momenta:R:3:forces:R:3:magmoms:R:1 Energy:=T 4.1390592=T energy=-37.48994710027087 dipole="-0.00395010152009727 -0.2878243182809395 0.07673569590982064" magmom=0.0 free_energy=-37.48994710027087 pbc="T T T"
C       12.40579581      11.87353443      10.78713242      -0.46532181       1.36438368      -0.57636323       1.04513779       0.15283488      -2.31353841       0.00000000
C       11.61355911      10.81908883      11.54883262       0.05071365      -0.50135477      -1.55290525       0.19239728      -2.53971285       1.38635373       0.00000000
O       10.52302348      11.53224293      12.18468307       0.26960809       0.46136335       0.08254992      -3.23875985       0.45471831       2.13576907       0.00000000
H       11.69504927      12.34548939       9.89737940      -0.29177484       0.19210459      -0.30161639       0.32092315       0.01226402       0.43875578       0.00000000
H       13.29279055      11.24489610      10.22151769       0.06811425      -0.28424662      -0.31172435       0.01336354       0.34387833      -0.02216972       0.00000000
H       12.91616733      12.73092349      11.45364322       0.39850172       0.36802600       0.11794720       0.00578428       0.31322215       0.35767258       0.00000000
H       11.22942435       9.87673402      10.83982059      -0.06380911      -0.43949496      -0.37769159       0.26922508       0.04067181      -0.39983785       0.00000000
H       12.30970187      10.23857571      12.41558181       0.25268006      -0.36126872       0.08918982       0.28096258       0.12262680      -0.43983184       0.00000000
H        9.93277001      10.75009313      12.86192929      -0.10898879      -0.27761050       0.33079184       1.09290821       1.10010706      -1.18650991       0.00000000
9
Lattice="23.296006118037088 0.0 0.0 0.0 22.649327160371357 0.0 0.0 0.0 22.71683509278982" Properties=species:S:1:pos:R:3:momenta:R:3:forces:R:3:magmoms:R:1 Energy:=T 4.1390592=T energy=-37.48994710027087 dipole="-0.00395010152009727 -0.2878243182809395 0.07673569590982064" magmom=0.0 free_energy=-37.48994710027087 pbc="T T T"
C       12.40403691      11.87918610      10.78451267      -0.39616645       1.40351698      -0.70456021       1.04513779       0.15283488      -2.31353841       0.00000000
C       11.61378984      10.81670264      11.54264018       0.06175171      -0.66857964      -1.47538993       0.19239728      -2.53971285       1.38635373       0.00000000
O       10.52361099      11.53361803      12.18510141       0.12082300       0.42271448       0.18262695      -3.23875985       0.45471831       2.13576907       0.00000000
H       11.68186800      12.35445261       9.88401477      -0.24416274       0.17195948      -0.24040031       0.32092315       0.01226402       0.43875578       0.00000000
H       13.29518418      11.23210919      10.20689056       0.02172909      -0.23651540      -0.28351496       0.01336354       0.34387833      -0.02216972       0.00000000
H       12.93492462      12.74796067      11.45882878       0.36644974       0.32010269       0.08577620       0.00578428       0.31322215       0.35767258       0.00000000
H       11.22688801       9.85647260      10.82180135      -0.03978603      -0.38281582      -0.35360404       0.26922508       0.04067181      -0.39983785       0.00000000
H       12.32157491      10.22175710      12.41861843       0.22713661      -0.32357794       0.02982593       0.28096258       0.12262680      -0.43983184       0.00000000
H        9.92929187      10.73873654      12.87597040      -0.03215273      -0.18282639       0.24302322       1.09290821       1.10010706      -1.18650991       0.00000000
9
Lattice="23.296006118037088 0.0 0.0 0.0 22.649327160371357 0.0 0.0 0.0 22.71683509278982" Properties=species:S:1:pos:R:3:momenta:R:3:forces:R:3:magmoms:R:1 Energy:=T 4.1390592=T energy=-37.48994710027087 dipole="-0.00395010152009727 -0.2878243182809395 0.07673569590982064" magmom=0.0 free_energy=-37.48994710027087 pbc="T T T"
C       12.40255593      11.88501251      10.78137047      -0.33294914       1.44678344      -0.82909530       1.04513779       0.15283488      -2.31353841       0.00000000
C       11.61406412      10.81362113      11.53676676       0.07148147      -0.83661139      -1.39806080       0.19239728      -2.53971285       1.38635373       0.00000000
O       10.52376528      11.53483821      12.18580432      -0.00848029       0.36085997       0.26340310      -3.23875985       0.45471831       2.13576907       0.00000000
H       11.67125626      12.36224639       9.87395302      -0.18770165       0.14449060      -0.16756972       0.32092315       0.01226402       0.43875578       0.00000000
H       13.29490800      11.22184830      10.19388991      -0.04011369      -0.18279777      -0.24593387       0.01336354       0.34387833      -0.02216972       0.00000000
H       12.95187689      12.76211666      11.46200188       0.32639911       0.25224655       0.03697221       0.00578428       0.31322215       0.35767258       0.00000000
H       11.22554731       9.83942963      10.80536281      -0.01624325      -0.30947010      -0.31366922       0.26922508       0.04067181      -0.39983785       0.00000000
H       12.33183573      10.20704389      12.41848826       0.18708526      -0.27587831      -0.03869546       0.28096258       0.12262680      -0.43983184       0.00000000
H        9.92963681      10.73227718      12.88561127       0.04532468      -0.07889738       0.15318570       1.09290821       1.10010706      -1.18650991       0.00000000
9
Lattice="23.296006118037088 0.0 0.0 0.0 22.649327160371357 0.0 0.0 0.0 22.71683509278982" Properties=species:S:1:pos:R:3:momenta:R:3:forces:R:3:magmoms:R:1 Energy:=T 4.1390592=T energy=-37.118157285302885 dipole="0.0016886288386425562 -0.2771347479282746 0.0756054666438738" magmom=0.0 free_energy=-37.118157285302885 pbc="T T T"
C       12.40131402      11.89101801      10.77773226      -0.25587973       1.48387143      -0.95476691       1.94799798       0.61854983      -2.64773330       0.00000000
C       11.61437442      10.80986076      11.53120673       0.08085924      -1.00359976      -1.31999381       0.20254756      -3.41981176       1.61851051       0.00000000
O       10.52355892      11.53583355      12.18671859      -0.14297433       0.30726768       0.35640849      -3.08474761      -0.69105050       2.38543557       0.00000000
H       11.66357697      12.36853284       9.86768554      -0.13406962       0.12141557      -0.09874814       0.95856722      -0.30976761       1.21697689       0.00000000
H       13.29127521      11.21429603      10.18292496      -0.09405716      -0.12730282      -0.21204468      -0.79400595       1.12796823       0.52933963       0.00000000
H       12.96673135      12.77254143      11.46243163       0.28453017       0.19040440      -0.00652217      -0.82833409      -0.95911249      -0.62476562       0.00000000
H       11.22530515       9.82631555      10.79123510       0.00925228      -0.23932884      -0.27932143       0.57916167       1.21445612       0.43304269       0.00000000
H       12.33980587      10.19487349      12.41484765       0.15231326      -0.23135337      -0.10473445      -0.45873722       0.75054064      -1.22226989       0.00000000
H        9.93370864      10.73104820      12.89089795       0.11941132       0.01642677       0.06671860       1.45953730       1.69608172      -1.70155709       0.00000000
9
Lattice="23.296006118037088 0.0 0.0 0.0 22.649327160371357 0.0 0.0 0.0 22.71683509278982" Properties=species:S:1:pos:R:3:momenta:R:3:forces:R:3:magmoms:R:1 Energy:=T 4.1390592=T energy=-37.09664946256087 dipole="0.003622396397085087 -0.2779636657678548 0.07606482562288965" magmom=0.0 free_energy=-37.09664946256087 pbc="T T T"
C       12.40046332      11.89714773      10.77356231      -0.15942395       1.51144693      -1.08209929       1.97987680       0.50438017      -2.53749860       0.00000000
C       11.61472540      10.80541360      11.52597174       0.09017435      -1.16758238      -1.24082629       0.17678256      -3.25789192       1.60535101       0.00000000
O       10.52288748      11.53672470      12.18799251      -0.28877249       0.27022580       0.47024642      -2.85244805      -0.81736965       2.25027537       0.00000000
H       11.65819153      12.37407802       9.86433028      -0.08632211       0.10620195      -0.03837118       0.98580791      -0.30976166       1.24169507       0.00000000
H       13.28574237      11.20944297      10.17322671      -0.13378360      -0.06995441      -0.18540046      -0.82373468       1.20737495       0.55566690       0.00000000
H       12.97960361      12.78067107      11.46136631       0.24152684       0.14031624      -0.03941953      -0.92284854      -1.08057880      -0.71488145       0.00000000
H       11.22644892       9.81610766      10.77814367       0.03780197      -0.17682901      -0.25595746       0.58343971       1.33066326       0.51838534       0.00000000
H       12.34667826      10.18449912      12.40828217       0.12797962      -0.19313470      -0.16555734      -0.53217781       0.80580063      -1.25456111       0.00000000
H        9.94127313      10.73387793      12.89211282       0.18931772       0.09851771      -0.01551283       1.38719274       1.64682734      -1.64707312       0.00000000
9
Lattice="23.296006118037088 0.0 0.0 0.0 22.649327160371357 0.0 0.0 0.0 22.71683509278982" Properties=species:S:1:pos:R:3:momenta:R:3:forces:R:3:magmoms:R:1 Energy:=T 4.1390592=T energy=-37.120600738641194 dipole="0.005878029694087384 -0.280256108161121 0.07665988092091654" magmom=0.0 free_energy=-37.120600738641194 pbc="T T T"
C       12.40001024      11.90337875      10.76888276      -0.06279965       1.53187861      -1.20257485       1.95485992       0.32763915      -2.36850981       0.00000000
C       11.61511188      10.80031218      11.52105915       0.09808309      -1.32120630      -1.16333932       0.14527728      -2.99798482       1.55007509       0.00000000
O       10.52178598      11.53749262      12.18960570      -0.42150438       0.22838108       0.57564202      -2.55266298      -0.88663211       2.04164643       0.00000000
H       11.65516511      12.37888194       9.86394637      -0.03837841       0.09154632       0.02194575       0.96655655      -0.28704510       1.21453211       0.00000000
H       13.27823835      11.20747915      10.16485817      -0.17379850      -0.00972718      -0.15831128      -0.80575299       1.24519983       0.54745911       0.00000000
H       12.99026750      12.78621488      11.45859030       0.19468463       0.08538993      -0.07580588      -0.98466082      -1.15613131      -0.76684439       0.00000000
H       11.22898885       9.80908403      10.76629272       0.06612392      -0.10972650      -0.22915320       0.56988729       1.40188662       0.57313843       0.00000000
H       12.35227715      10.17605302      12.39871453       0.10090341      -0.15283414      -0.22699934      -0.57042039       0.83532000      -1.24748151       0.00000000
H        9.95215715      10.74064849      12.88938626       0.25423628       0.17637821      -0.09351461       1.25642205       1.52380979      -1.52931711       0.00000000
9
Lattice="23.296006118037088 0.0 0.0 0.0 22.649327160371357 0.0 0.0 0.0 22.71683509278982" Properties=species:S:1:pos:R:3:momenta:R:3:forces:R:3:magmoms:R:1 Energy:=T 4.1390592=T energy=-37.18569262922171 dipole="0.00849736675531936 -0.28406430141688455 0.07731848518954522" magmom=0.0 free_energy=-37.18569262922171 pbc="T T T"
C       12.39994974      11.90967556      10.76372755       0.03128105       1.54216502      -1.31341933       1.87629661       0.09124425      -2.14530185       0.00000000
C       11.61552753      10.79460867      11.51645785       0.10433498      -1.45904062      -1.08902248       0.10931270      -2.61490755       1.47625717       0.00000000
O       10.52029963      11.53812687      12.19152670      -0.53773115       0.18491527       0.66872833      -2.18032640      -0.88338337       1.74901673       0.00000000
H       11.65445165      12.38299896       9.86646883       0.00751965       0.07858429       0.07975562       0.90250544      -0.24079532       1.13960302       0.00000000
H       13.26880617      11.20849508      10.15779969      -0.21175320       0.05145521      -0.13244844      -0.73983942       1.24627073       0.50572827       0.00000000
H       12.99857512      12.78899209      11.45397923       0.14519920       0.02794107      -0.11378584      -1.03048602      -1.18330253      -0.77977661       0.00000000
H       11.23289252       9.80541510      10.75581329       0.09334589      -0.04031328      -0.20054013       0.53864631       1.42476004       0.59204327       0.00000000
H       12.35651103      10.16960583      12.38616168       0.07263023      -0.11163600      -0.28706008      -0.58092054       0.84235146      -1.19831325       0.00000000
H        9.96604778      10.75106552      12.88300007       0.31133895       0.24630652      -0.16359519       1.06891418       1.32381230      -1.32450600       0.00000000
9
Lattice="23.296006118037088 0.0 0.0 0.0 22.649327160371357 0.0 0.0 0.0 22.71683509278982" Properties=species:S:1:pos:R:3:momenta:R:3:forces:R:3:magmoms:R:1 Energy:=T 4.1390592=T energy=-37.27950351887867 dipole="0.011502041699246799 -0.2893604527797832 0.07798656437075219" magmom=0.0 free_energy=-37.27950351887867 pbc="T T T"
C       12.40026606      11.91599070      10.75814151       0.12037859       1.53997751      -1.41210293       1.75193551      -0.18032399      -1.87329403       0.00000000
C       11.61596514      10.78838002      11.51215303       0.10858643      -1.57510804      -1.01850195       0.06381489      -2.11159267       1.39548143       0.00000000
O       10.51848455      11.53862792      12.19371140      -0.63365141       0.14390623       0.74498674      -1.72574042      -0.78658795       1.35637990       0.00000000
H       11.65589788      12.38653977       9.87171835       0.04917943       0.06848794       0.13267298       0.79396509      -0.17034820       1.01529864       0.00000000
H       13.25760356      11.21249333      10.15195142      -0.24523144       0.11175754      -0.10935091      -0.62346226       1.20936213       0.43484992       0.00000000
H       13.00441679      12.78893767      11.44750217       0.09462508      -0.02947404      -0.15125567      -1.02899448      -1.15475700      -0.74607044       0.00000000
H       11.23808516       9.80515561      10.74675062       0.11846141       0.02910083      -0.17172128       0.48410842       1.40192290       0.58151878       0.00000000
H       12.35935477      10.16517438      12.37074128       0.04467476      -0.07102120      -0.34369586      -0.55748302       0.81156553      -1.10801032       0.00000000
H        9.98249632      10.76465042      12.87344434       0.35733492       0.30365660      -0.22129527       0.80413497       1.01159887      -1.02515781       0.00000000
9
Lattice="23.296006118037088 0.0 0.0 0.0 22.649327160371357 0.0 0.0 0.0 22.71683509278982" Properties=species:S:1:pos:R:3:momenta:R:3:forces:R:3:magmoms:R:1 Energy:=T 4.1390592=T energy=-37.38169565276766 dipole="0.014899977253699823 -0.2960216431565108 0.0786031022450113" magmom=0.0 free_energy=-37.38169565276766 pbc="T T T"
C       12.40093421      11.92226963      10.75217926       0.20238773       1.52317825      -1.49624253       1.58764251      -0.50377600      -1.55304047       0.00000000
C       11.61641556      10.78172731      11.50812846       0.11038718      -1.66456565      -0.95276615       0.00951532      -1.53130193       1.28141321       0.00000000
O       10.51640928      11.53901039      12.19610060      -0.70508348       0.11053737       0.79909322      -1.18311811      -0.57225926       0.84694550       0.00000000
H       11.65924406      12.38967293       9.87939746       0.08442122       0.06241926       0.17804816       0.64115178      -0.07678094       0.83247055       0.00000000
H       13.24490901      11.21938556      10.14714373      -0.27196803       0.16930649      -0.09062151      -0.46530581       1.13414744       0.32784885       0.00000000
H       13.00779608      12.78611992      11.43923976       0.04494463      -0.08421098      -0.18610415      -0.99409393      -1.07424206      -0.67303041       0.00000000
H       11.24443627       9.80825090      10.73907951       0.14048518       0.09633807      -0.14419003       0.41274396       1.33611367       0.53960935       0.00000000
H       12.36086447      10.16268500      12.35266942       0.01871820      -0.03259463      -0.39483426      -0.49952057       0.75324211      -0.97444864       0.00000000
H       10.00086913      10.78065606      12.86143542       0.38796238       0.34264421      -0.26131568       0.44307707       0.57605572      -0.60455412       0.00000000
9
Lattice="23.296006118037088 0.0 0.0 0.0 22.649327160371357 0.0 0.0 0.0 22.71683509278982" Properties=species:S:1:pos:R:3:momenta:R:3:forces:R:3:magmoms:R:1 Energy:=T 4.1390592=T energy=-37.46885930928509 dipole="0.01866234748382589 -0.3037963198498963 0.07910381141793345" magmom=0.0 free_energy=-37.46885930928509 pbc="T T T"
C       12.40192120      11.92844738      10.74590512       0.27537854       1.48940641      -1.56315529       1.38469084      -0.87148155      -1.17178239       0.00000000
C       11.61686789      10.77476707      11.50436123       0.10902274      -1.72394470      -0.89362469      -0.06507817      -0.88673345       1.12694684       0.00000000
O       10.51415564      11.53930657      12.19861749      -0.74780140       0.09096986       0.82513549      -0.55644189      -0.22456951       0.21354831       0.00000000
H       11.66412450      12.39262236       9.88906867       0.11100980       0.06147587       0.21326098       0.44158890       0.03836416       0.60146677       0.00000000
H       13.23110099      11.22899180      10.14312059      -0.29013843       0.22212619      -0.07796363      -0.27462963       1.01677778       0.18760574       0.00000000
H       13.00879652      12.78073153      11.42936681      -0.00193799      -0.13387044      -0.21670359      -0.91506136      -0.94799132      -0.57304037       0.00000000
H       11.25177508       9.81454350      10.73269968       0.15857385       0.15924376      -0.11954195       0.32386337       1.22553335       0.46411031       0.00000000