9
Lattice="23.296006118037088 0.0 0.0 0.0 22.649327160371357 0.0 0.0 0.0 22.71683509278982" Properties=species:S:1:pos:R:3:momenta:R:3:forces:R:3:magmoms:R:1 Energy:=T 4.1390592=T energy=-36.93182759215139 dipole="-0.0078209109549222 -0.30479179601474593 0.09208169402141494" magmom=0.0 free_energy=-36.93182759215139 pbc="T T T"
C       12.42178890      11.83472232      10.78889031      -0.07102312       0.23818955      -1.39034356      -0.08924546      -0.58251800       0.72513665       0.00000000
C       11.60950610      10.82666870      11.59807714      -0.74818628       0.42041874      -0.22321302      -0.17036701       0.44989220      -0.26527411       0.00000000
O       10.50795811      11.52831904      12.18652448       0.15725701       0.69479406      -0.62164515       0.13629392       4.73599802      -1.42510973       0.00000000
H       11.78308076      12.29134916      10.00068758      -0.22277783       0.00072892      -0.03122265      -1.50629857       1.10941485      -1.84611130       0.00000000
H       13.29616020      11.34142178      10.30196218       0.05191454      -0.03821300      -0.22798632       1.98528906      -1.12336369      -1.12992832       0.00000000
H       12.80492430      12.65612649      11.45681698       0.22727117       0.17758854       0.09313486       0.66741866       1.54905865       1.24799410       0.00000000
H       11.24775959       9.98916013      10.91768867      -0.16700991      -0.26657550      -0.20086378      -0.37426411      -1.79580590      -1.55845411       0.00000000
H       12.25981622      10.34042617      12.38480144       0.04417168      -0.26139317       0.02048003       1.78318314      -1.18957569       1.54828915       0.00000000
H       10.01997603      10.86232405      12.71688353       0.34879148      -0.21523260       0.06604640      -2.49196673      -3.18235765       2.64906066       0.00000000
9
Lattice="23.296006118037088 0.0 0.0 0.0 22.649327160371357 0.0 0.0 0.0 22.71683509278982" Properties=species:S:1:pos:R:3:momenta:R:3:forces:R:3:magmoms:R:1 Energy:=T 4.1390592=T energy=-37.11340952686939 dipole="-0.004569629647915459 -0.30430564090929174 0.09570061273834762" magmom=0.0 free_energy=-37.11340952686939 pbc="T T T"
C       12.42148952      11.83563780      10.78327795      -0.06799284       0.21744480      -1.35084920       0.21264482      -0.26225012       0.88315359       0.00000000
C       11.60642963      10.82843299      11.59713778      -0.74950963       0.42584941      -0.24172806       0.11647766      -0.22874428      -0.48869552       0.00000000
O       10.50845113      11.53080893      12.18450873       0.15426569       0.91798594      -0.68267931      -0.25810665       4.35282673      -1.06032453       0.00000000
H       11.77042392      12.29271209       9.99695743      -0.29346296       0.05354058      -0.11803338      -1.37214278       1.04118278      -1.68899695       0.00000000
H       13.30106505      11.33821580      10.28950189       0.14248537      -0.08980400      -0.27997666       1.70293807      -0.97752594      -0.98722356       0.00000000
H       12.81679636      12.66663270      11.46284807       0.25438745       0.24241136       0.14474387       0.43681123       1.09065799       0.85362907       0.00000000
H       11.23917445       9.97402292      10.90603717      -0.18046972      -0.34247967      -0.26769625      -0.17384658      -1.29516545      -1.16309950       0.00000000
H       12.26410199      10.32626681      12.38765182       0.12489129      -0.31439709       0.08872944       1.50388268      -0.96885121       1.23096462       0.00000000
H       10.03398881      10.84802945      12.72327114       0.23265652      -0.36195817       0.19023317      -2.23728356      -2.79260415       2.40807558       0.00000000
9
Lattice="23.296006118037088 0.0 0.0 0.0 22.649327160371357 0.0 0.0 0.0 22.71683509278982" Properties=species:S:1:pos:R:3:momenta:R:3:forces:R:3:magmoms:R:1 Energy:=T 4.1390592=T energy=-37.32950290197161 dipole="-0.001872326360697914 -0.3017292906319689 0.09882384364004416" magmom=0.0 free_energy=-37.32950290197161 pbc="T T T"
C       12.42123285      11.83650061      10.77784295      -0.04952987       0.21401645      -1.30899568       0.53920434       0.12264093       0.82120663       0.00000000
C       11.60337655      10.83015133      11.59610027      -0.73529519       0.39509252      -0.26958652       0.46236310      -1.02373850      -0.64575730       0.00000000
O       10.50890523      11.53395508      12.18233312       0.12583586       1.11328333      -0.71830209      -0.89961340       3.60007802      -0.39030726       0.00000000
H       11.75448356      12.29656655       9.98918554      -0.35402953       0.10091695      -0.19331496      -1.09425035       0.88807890      -1.37662145       0.00000000
H       13.31004502      11.33267061      10.27467919       0.21589799      -0.13228204      -0.32306611       1.28657263      -0.75226578      -0.76746609       0.00000000
H       12.82971369      12.67974884      11.47092189       0.26999233       0.28388898       0.17614455       0.19865100       0.59839449       0.42506999       0.00000000
H       11.23017329       9.95578639      10.89160238      -0.18389182      -0.39244379      -0.31412999       0.03449203      -0.73947439      -0.72777629       0.00000000
H       12.27198655      10.30978900      12.39344789       0.18987435      -0.35495585       0.13920881       1.14235916      -0.68278341       0.82465759       0.00000000
H       10.04264780      10.82705218      12.73542125       0.13513153      -0.48038189       0.29491698      -1.73413135      -2.02984935       1.85486088       0.00000000
9
Lattice="23.296006118037088 0.0 0.0 0.0 22.649327160371357 0.0 0.0 0.0 22.71683509278982" Properties=species:S:1:pos:R:3:momenta:R:3:forces:R:3:magmoms:R:1 Energy:=T 4.1390592=T energy=-37.503448588998815 dipole="0.00016908474893278543 -0.297705520227098 0.10148645336920757" magmom=0.0 free_energy=-37.503448588998815 pbc="T T T"
C       12.42108446      11.83738804      10.77257288      -0.01560197       0.22952810      -1.27426165       0.84240864       0.50902459       0.59323299       0.00000000
C       11.60041632      10.83166409      11.59493308      -0.70344222       0.32510792      -0.30373720       0.83475396      -1.82617603      -0.74492780       0.00000000
O       10.50922370      11.53764400      12.18009867       0.06422215       1.26722630      -0.71791395      -1.60942147       2.66879102       0.40611317       0.00000000
H       11.73592468      12.30254618       9.97811940      -0.39850952       0.13934010      -0.25105136      -0.71706488       0.67658973      -0.97452167       0.00000000
H       13.32210375      11.32532526      10.25801995       0.26718868      -0.16260574      -0.35468891       0.80208784      -0.48257666      -0.52027832       0.00000000
H       12.84310640      12.69429693      11.48001290       0.27415184       0.30179934       0.18718212      -0.02926723       0.13095166       0.02440211       0.00000000
H       11.22125467       9.93578030      10.87542602      -0.17780150      -0.41616708      -0.34008447       0.21351794      -0.22658616      -0.32914266       0.00000000
H       12.28260475      10.29167729      12.40121736       0.23643418      -0.38072169       0.16911077       0.75365130      -0.36645365       0.39301074       0.00000000
H       10.04715702      10.80121750      12.75201002       0.06445497      -0.55669512       0.36872714      -1.14396107      -1.07777980       1.15083834       0.00000000
9
Lattice="23.296006118037088 0.0 0.0 0.0 22.649327160371357 0.0 0.0 0.0 22.71683509278982" Properties=species:S:1:pos:R:3:momenta:R:3:forces:R:3:magmoms:R:1 Energy:=T 4.1390592=T energy=-37.58550619347951 dipole="0.0016014172636903468 -0.2930190298625261 0.10376332937869433" magmom=0.0 free_energy=-37.58550619347951 pbc="T T T"
C       12.42110526      11.83837771      10.76742194       0.03179376       0.26282832      -1.25289766       1.08764131       0.84702800       0.27675206       0.00000000
C       11.59762374      10.83281009      11.59361628      -0.65347666       0.21751531      -0.34178453       1.19994471      -2.55521276      -0.80443610       0.00000000
O       10.50929953      11.54173530      12.17792544      -0.03046372       1.37521078      -0.67908524      -2.24637899       1.72855528       1.17507060       0.00000000
H       11.71564986      12.31014488       9.96472124      -0.42401213       0.16693510      -0.28832351      -0.32145282       0.44713426      -0.54327559       0.00000000
H       13.33608186      11.31682511      10.24011569       0.29435832      -0.17955959      -0.37366478       0.30431500      -0.20781838      -0.25245734       0.00000000
H       12.85642907      12.70915839      11.48916230       0.26753180       0.29804885       0.17951437      -0.24031416      -0.28367938      -0.33664821       0.00000000
H       11.21284700       9.91523200      10.85846204      -0.16337393      -0.41626691      -0.34743840       0.37400197       0.22252119       0.02967573       0.00000000
H       12.29502643      10.27268867      12.40992729       0.26392240      -0.39128233       0.17840295       0.36572452      -0.06359711      -0.01461435       0.00000000
H       10.04892876      10.77280370      12.77135274       0.02178207      -0.58650539       0.40816167      -0.59376561      -0.13615450       0.45501543       0.00000000
9
Lattice="23.296006118037088 0.0 0.0 0.0 22.649327160371357 0.0 0.0 0.0 22.71683509278982" Properties=species:S:1:pos:R:3:momenta:R:3:forces:R:3:magmoms:R:1 Energy:=T 4.1390592=T energy=-37.56378858601936 dipole="0.0025947987682998887 -0.2884049893070185 0.10573288992780575" magmom=0.0 free_energy=-37.56378858601936 pbc="T T T"
C       12.42134448      11.83953747      10.76232658       0.08955447       0.31089871      -1.24768472       1.26449146       1.11049530      -0.06447044       0.00000000
C       11.59507214      10.83344294      11.59213793      -0.58655915       0.07717441      -0.38220247       1.52507201      -3.15975237      -0.84146430       0.00000000
O       10.50903667      11.54608720      12.17592938      -0.15262632       1.43932755      -0.60523608      -2.72832888       0.88240942       1.83221669       0.00000000
H       11.69460581      12.31881356       9.95002303      -0.42974053       0.18302757      -0.30469525       0.08818052       0.20818374      -0.12341464       0.00000000
H       13.35078819      11.30782765      10.22160730       0.29800183      -0.18329095      -0.37975782      -0.15594417       0.05586953       0.00433662       0.00000000
H       12.86917667      12.72334101      11.49750610       0.25130900       0.27599237       0.15558253      -0.42031131      -0.61450511      -0.63790465       0.00000000
H       11.20533431       9.89521619      10.84156907      -0.14200495      -0.39607643      -0.33853024       0.49618615       0.59967604       0.33308252       0.00000000
H       12.30832329      10.25354786      12.41860225       0.27324915      -0.38709102       0.16887369       0.01407965       0.23427589      -0.37343654       0.00000000
H       10.04927963      10.74406409      12.79178431       0.00330402      -0.57315369       0.41565927      -0.15869831       0.67986237      -0.14969789       0.00000000
9
Lattice="23.296006118037088 0.0 0.0 0.0 22.649327160371357 0.0 0.0 0.0 22.71683509278982" Properties=species:S:1:pos:R:3:momenta:R:3:forces:R:3:magmoms:R:1 Energy:=T 4.1390592=T energy=-37.56378858601936 dipole="0.0025947987682998887 -0.2884049893070185 0.10573288992780575" magmom=0.0 free_energy=-37.56378858601936 pbc="T T T"
C       12.42184822      11.84093804      10.75718649       0.15787690       0.37646057      -1.27278634       1.26449146       1.11049530      -0.06447044       0.00000000
C       11.59285353      10.83339489      11.59048789      -0.49362201      -0.10874069      -0.42543481       1.52507201      -3.15975237      -0.84146430       0.00000000
O       10.50833826      11.55051643      12.17425047      -0.30799804       1.42861502      -0.47588213      -2.72832888       0.88240942       1.83221669       0.00000000
H       11.67417415      12.32773756       9.93547261      -0.40091571       0.17853676      -0.28494087       0.08818052       0.20818374      -0.12341464       0.00000000
H       13.36464649      11.29923629      10.20338452       0.26314407      -0.16485968      -0.36360291      -0.15594417       0.05586953       0.00433662       0.00000000
H       12.88075591      12.73579230      11.50406320       0.22202722       0.23304748       0.11077975      -0.42031131      -0.61450511      -0.63790465       0.00000000
H       11.19913896       9.87701375      10.82578109      -0.11045699      -0.34487510      -0.30446862       0.49618615       0.59967604       0.33308252       0.00000000
H       12.32128368      10.23525869      12.42602212       0.25268117      -0.35787050       0.12982699       0.01407965       0.23427589      -0.37343654       0.00000000
H       10.04962429      10.71773350      12.81127826       0.01627334      -0.49486248       0.37504660      -0.15869831       0.67986237      -0.14969789       0.00000000
9
Lattice="23.296006118037088 0.0 0.0 0.0 22.649327160371357 0.0 0.0 0.0 22.71683509278982" Properties=species:S:1:pos:R:3:momenta:R:3:forces:R:3:magmoms:R:1 Energy:=T 4.1390592=T energy=-37.56378858601936 dipole="0.0025947987682998887 -0.2884049893070185 0.10573288992780575" magmom=0.0 free_energy=-37.56378858601936 pbc="T T T"
C       12.42263561      11.84261620      10.75191763       0.22705335       0.44494465      -1.30890571       1.26449146       1.11049530      -0.06447044       0.00000000
C       11.59103526      10.83255365      11.58865869      -0.39217965      -0.30814188      -0.46982792       1.52507201      -3.15975237      -0.84146430       0.00000000
O       10.50714569      11.55485828      12.17300767      -0.47559493       1.37799444      -0.31740608      -2.72832888       0.88240942       1.83221669       0.00000000
H       11.65553763      12.33621150       9.92225629      -0.35959740       0.16637026      -0.25195874       0.08818052       0.20818374      -0.12341464       0.00000000
H       13.37643089      11.29176251      10.18617515       0.21503895      -0.13864574      -0.33929123      -0.15594417       0.05586953       0.00433662       0.00000000
H       12.89081264      12.74605087      11.50830129       0.19039572       0.18960927       0.06327574      -0.42031131      -0.61450511      -0.63790465       0.00000000
H       11.19457057       9.86160902      10.81189940      -0.07536604      -0.28240807      -0.26118211       0.49618615       0.59967604       0.33308252       0.00000000
H       12.33294641      10.21867432      12.43125355       0.22104306      -0.31918086       0.08036957       0.01407965       0.23427589      -0.37343654       0.00000000
H       10.05086542      10.69584105      12.82833161       0.03907208      -0.39278455       0.31683342      -0.15869831       0.67986237      -0.14969789       0.00000000
9
Lattice="23.296006118037088 0.0 0.0 0.0 22.649327160371357 0.0 0.0 0.0 22.71683509278982" Properties=species:S:1:pos:R:3:momenta:R:3:forces:R:3:magmoms:R:1 Energy:=T 4.1390592=T energy=-37.56378858601936 dipole="0.0025947987682998887 -0.2884049893070185 0.10573288992780575" magmom=0.0 free_energy=-37.56378858601936 pbc="T T T"
C       12.42370508      11.84457683      10.74648215       0.29500480       0.51332673      -1.35245636       1.26449146       1.11049530      -0.06447044       0.00000000
C       11.58964625      10.83087488      11.58664560      -0.28478811      -0.51652303      -0.51538141       1.52507201      -3.15975237      -0.84146430       0.00000000
O       10.50541831      11.55897672      12.17230173      -0.66211784       1.27125927      -0.11599705      -2.72832888       0.88240942       1.83221669       0.00000000
H       11.63913233      12.34394990       9.91091989      -0.30830563       0.14809207      -0.20930084       0.08818052       0.20818374      -0.12341464       0.00000000
H       13.38560147      11.28572563      10.17032148       0.15796198      -0.10706582      -0.30911173      -0.15594417       0.05586953       0.00433662       0.00000000
H       12.89930948      12.75426922      11.51022926       0.15969987       0.15303623       0.01900151      -0.42031131      -0.61450511      -0.63790465       0.00000000
H       11.19179473       9.84949383      10.80032958      -0.03757498      -0.21105243      -0.21057708       0.49618615       0.59967604       0.33308252       0.00000000
H       12.34282374      10.20415536      12.43385393       0.18100966      -0.27256598       0.02319620       0.01407965       0.23427589      -0.37343654       0.00000000
H       10.05343176      10.67945768      12.84215284       0.07070712      -0.26904587       0.24262391      -0.15869831       0.67986237      -0.14969789       0.00000000
9
Lattice="23.296006118037088 0.0 0.0 0.0 22.649327160371357 0.0 0.0 0.0 22.71683509278982" Properties=species:S:1:pos:R:3:momenta:R:3:forces:R:3:magmoms:R:1 Energy:=T 4.1390592=T energy=-37.090092943450905 dipole="0.007845736591704533 -0.28091521714205386 0.1098336802837162" magmom=0.0 free_energy=-37.090092943450905 pbc="T T T"
C       12.42504818      11.84681423      10.74085713       0.36104196       0.58199378      -1.39684686       1.32667340       1.41813538      -0.86379828       0.00000000
C       11.58870623      10.82832949      11.58444386      -0.17744424      -0.71862243      -0.56145195       2.13560328      -3.91466686      -0.93672664       0.00000000
O       10.50308058      11.56266327      12.17229550      -0.83521394       1.17596595       0.06850964      -3.00053044      -1.01586495       2.87259413       0.00000000
H       11.62549406      12.35064268       9.90186048      -0.25165523       0.12759860      -0.16367728       1.15061453      -0.39758545       0.90636033       0.00000000
H       13.39182387      11.28132923      10.15605303       0.09775919      -0.07322499      -0.27760899      -1.21956693       0.69253287       0.62041386       0.00000000
H       12.90637497      12.76096385      11.51015294       0.12549983       0.10559752      -0.03225542      -0.79455437      -1.29505225      -1.24972490       0.00000000
H       11.19090899       9.84104251      10.79137922      -0.00161846      -0.13971866      -0.16016771       0.67437788       1.37376729       0.95813487       0.00000000
H       12.35058532      10.19211348      12.43351396       0.14006775      -0.22487045      -0.03384369      -0.78309215       0.90711404      -1.09404762       0.00000000
H       10.05775565      10.66962324      12.85197467       0.10021818      -0.14803374       0.17076853       0.46729261       2.19114674      -1.25479621       0.00000000
9
Lattice="23.296006118037088 0.0 0.0 0.0 22.649327160371357 0.0 0.0 0.0 22.71683509278982" Properties=species:S:1:pos:R:3:momenta:R:3:forces:R:3:magmoms:R:1 Energy:=T 4.1390592=T energy=-37.03776925421685 dipole="0.01045652240240769 -0.2822151264695003 0.10943839407619878" magmom=0.0 free_energy=-37.03776925421685 pbc="T T T"
C       12.42665771      11.84933643      10.73505862       0.42359650       0.64977432      -1.44009304       1.22067386       1.34202525      -0.89727351       0.00000000
C       11.58819510      10.82499792      11.58205400      -0.07236639      -0.90678084      -0.60791505       2.14337950      -3.74752445      -0.95534478       0.00000000
O       10.50029046      11.56619665      12.17272235      -0.97831686       1.12087072       0.20880830      -2.82690968      -1.22772420       2.84065136       0.00000000
H       11.61460919      12.35638405       9.89496997      -0.19210353       0.10638949      -0.11658636       1.27445112      -0.46609207       1.01127717       0.00000000
H       13.39512785      11.27859005      10.14326922       0.03568720      -0.03754665      -0.24555469      -1.30813009       0.76036129       0.68490207       0.00000000
H       12.91153910      12.76455943      11.50708605       0.08587798       0.04111447      -0.09438144      -0.81892741      -1.33082821      -1.28017257       0.00000000
H       11.19163702       9.83587861      10.78472166       0.03113380      -0.07118951      -0.11223187       0.65936031       1.41687805       0.99390960       0.00000000
H       12.35647298      10.18224232      12.43055595       0.09965842      -0.17878222      -0.08845255      -0.86245741       0.96969168      -1.12973543       0.00000000
H       10.06319776      10.66503218      12.85879379       0.12289918      -0.03851219       0.10822390       0.45632358       2.26879226      -1.29214772       0.00000000
9
Lattice="23.296006118037088 0.0 0.0 0.0 22.649327160371357 0.0 0.0 0.0 22.71683509278982" Properties=species:S:1:pos:R:3:momenta:R:3:forces:R:3:magmoms:R:1 Energy:=T 4.1390592=T energy=-37.04144903032828 dipole="0.013738393914267755 -0.2845628104324101 0.10841853540407975" magmom=0.0 free_energy=-37.04144903032828 pbc="T T T"
C       12.42851239      11.85212814      10.72907993       0.47977573       0.71208322      -1.48367015       1.06705816       1.19531926      -0.87727482       0.00000000
C       11.58811442      10.82091376      11.57947228       0.03214098      -1.08414905      -0.65538217       2.11237176      -3.47526771      -0.97761226       0.00000000
O       10.49707413      11.56954493      12.17357749      -1.11107988       1.05653748       0.34563537      -2.57946913      -1.39205543       2.73122357       0.00000000
H       11.60677407      12.36101006       9.89049944      -0.12760796       0.08244367      -0.06545820       1.35193913      -0.50903051       1.07076491       0.00000000
H       13.39530149      11.27767041      10.13212437      -0.02919864       0.00061470      -0.21127085      -1.33415271       0.79364626       0.71120537       0.00000000
H       12.91474355      12.76497034      11.50095572       0.04584624      -0.02378291      -0.15684285      -0.81124634      -1.31192434      -1.26338210       0.00000000
H       11.19394289       9.83410528      10.78044252       0.06264921      -0.00153854      -0.06334412       0.62401096       1.41945041       0.99689848       0.00000000
H       12.36029677      10.17469163      12.42489449       0.05622952      -0.13030055      -0.14372750      -0.90605534       1.00457989      -1.12117240       0.00000000
H       10.06973185      10.66587032      12.86252081       0.14417160       0.07286979       0.04532471       0.40993231       2.26690762      -1.26923449       0.00000000
9
Lattice="23.296006118037088 0.0 0.0 0.0 22.649327160371357 0.0 0.0 0.0 22.71683509278982" Properties=species:S:1:pos:R:3:momenta:R:3:forces:R:3:magmoms:R:1 Energy:=T 4.1390592=T energy=-37.10138395516016 dipole="0.017658697082665143 -0.2878852997785281 0.10682725326676769" magmom=0.0 free_energy=-37.10138395516016 pbc="T T T"
C       12.43058136      11.85515990      10.72292505       0.52726338       0.76574966      -1.52534713       0.86673480       0.99008692      -0.81989621       0.00000000
C       11.58845795      10.81613166      11.57669423       0.13419159      -1.24565678      -0.70380233       2.04333566      -3.10165383      -0.99415457       0.00000000
O       10.49346891      11.57268333      12.17484441      -1.22974475       0.98494327       0.47523538      -2.25280438      -1.52340544       2.54635074       0.00000000
H       11.60217413      12.36441797       9.88859124      -0.06044789       0.05713936      -0.01257127       1.38295482      -0.52141187       1.08289767       0.00000000
H       13.39228252      11.27864995      10.12268143      -0.09398446       0.03955881      -0.17659897      -1.30405675       0.79223663       0.70070360       0.00000000
H       12.91600670      12.76224184      11.49180213       0.00689330      -0.08654728      -0.21744534      -0.77499619      -1.24396755      -1.20447394       0.00000000
H       11.19774202       9.83572868      10.77854894       0.09189095       0.06709678      -0.01521856       0.56677183       1.37551850       0.96287162       0.00000000
H       12.36195239      10.16954488      12.41655008       0.01169661      -0.08074719      -0.19749018      -0.90741505       1.01333346      -1.06815252       0.00000000
H       10.07724690      10.67213315      12.86321056       0.16231623       0.18214308      -0.01491395       0.32895371       2.18292152      -1.18380579       0.00000000
9
Lattice="23.296006118037088 0.0 0.0 0.0 22.649327160371357 0.0 0.0 0.0 22.71683509278982" Properties=species:S:1:pos:R:3:momenta:R:3:forces:R:3:magmoms:R:1 Energy:=T 4.1390592=T energy=-37.209127276814705 dipole="0.022109827716782004 -0.29209552789820004 0.10478016013586465" magmom=0.0 free_energy=-37.209127276814705 pbc="T T T"
C       12.43282439      11.85839050      10.71660551       0.56389241       0.80808000      -1.56377867       0.62487347       0.73368985      -0.74511362       0.00000000
C       11.58921185      10.81072667      11.57371653       0.23200397      -1.38620664      -0.75259866       1.93978240      -2.62182045      -0.99293064       0.00000000
O       10.48952403      11.57559205      12.17649523      -1.33096668       0.90842742       0.59390040      -1.86915720      -1.59247491       2.28592922       0.00000000
H       11.60088358      12.36657814       9.88927441       0.00704975       0.03185344       0.03972798       1.36568570      -0.50828208       1.04683373       0.00000000
H       13.38614295      11.28152531      10.11491526      -0.15610739       0.07764644      -0.14360030      -1.22571481       0.75876846       0.64306917       0.00000000
H       12.91541529      12.75653654      11.47976624      -0.02951848      -0.14446913      -0.27379894      -0.70776501      -1.11472734      -1.09035882       0.00000000
H       11.20289742       9.84064369      10.77895951       0.11790306       0.13239078       0.03024988       0.49249389       1.28338540       0.88869503       0.00000000
H       12.36143658      10.16682303      12.40564959      -0.03193536      -0.03156001      -0.24765891      -0.86936663       0.98966789      -0.97481964       0.00000000
H       10.08554914      10.68361969      12.86106748       0.17543719       0.28531254      -0.06955322       0.20535809       2.01834777      -1.04121585       0.00000000
9
Lattice="23.296006118037088 0.0 0.0 0.0 22.649327160371357 0.0 0.0 0.0 22.71683509278982" Properties=species:S:1:pos:R:3:momenta:R:3:forces:R:3:magmoms:R:1 Energy:=T 4.1390592=T energy=-37.34805564773955 dipole="0.026907801168961576 -0.2970883131038343 0.10245147950125996" magmom=0.0 free_energy=-37.34805564773955 pbc="T T T"
C       12.43519291      11.86176845      10.71013634       0.58759936       0.83669536      -1.59794731       0.34052127       0.43158575      -0.64630249       0.00000000
C       11.59035530      10.80479515      11.57053942       0.32380978      -1.50035655      -0.80087600       1.79873580      -2.02659489      -0.97302048       0.00000000
O       10.48529735      11.57826068      12.17849070      -1.41220401       0.83069988       0.69785052      -1.43899147      -1.57274745       1.94712974       0.00000000
H       11.60286111      12.36752200       9.89246263       0.07241373       0.00783092       0.08908309       1.29606762      -0.46996364       0.96300592       0.00000000
H       13.37707026      11.28621639      10.10868796      -0.21292002       0.11333147      -0.11416820      -1.08781032       0.69439832       0.55546531       0.00000000
H       12.91313020      12.74816371      11.46512114      -0.06166083      -0.19460604      -0.32328163      -0.60113627      -0.92694928      -0.92467620       0.00000000
H       11.20923136       9.84862982      10.78149671       0.13991234       0.19191597       0.07102469       0.40376864       1.14060079       0.77173788       0.00000000
H       12.35884038      10.16646944      12.39241637      -0.07260370       0.01556132      -0.29248194      -0.78673073       0.92920803      -0.85046501       0.00000000
H       10.09434279      10.69993611      12.85643278       0.18154569       0.37824991      -0.11560018       0.04339246       1.76624993      -0.83390948       0.00000000
9
Lattice="23.296006118037088 0.0 0.0 0.0 22.649327160371357 0.0 0.0 0.0 22.71683509278982" Properties=species:S:1:pos:R:3:momenta:R:3:forces:R:3:magmoms:R:1 Energy:=T 4.1390592=T energy=-37.49408727190812 dipole="0.031821728790748204 -0.30271646097679183 0.10006560571540156" magmom=0.0 free_energy=-37.49408727190812 pbc="T T T"
C       12.43762983      11.86523306      10.70353737       0.59638466       0.84893040      -1.62617100       0.01723421       0.06664974      -0.50302333       0.00000000
C       11.59185999      10.79845663      11.56716690       0.40781046      -1.58323457      -0.84816115       1.62194162      -1.34836581      -0.95252633       0.00000000
O       10.48085371      11.58069219      12.18077973      -1.47148999       0.75700799       0.78284937      -0.97525346      -1.42813573       1.51419545       0.00000000
H       11.60794011      12.36734124       9.89795532       0.13306553      -0.01360291       0.13322269       1.17379652      -0.40286522       0.83444815       0.00000000
H       13.36539446      11.29256916      10.10378987      -0.26142771       0.14489210      -0.08988457      -0.88752101       0.59081444       0.43341319       0.00000000
H       12.90940660      12.73757269      11.44826330      -0.08778119      -0.23409078      -0.36322512      -0.46253768      -0.68094902      -0.70190379       0.00000000
H       11.21653151       9.85934539      10.78588068       0.15693863       0.24280006       0.10472147       0.28957626       0.93150219       0.60046311       0.00000000