9
Lattice="23.296006118037088 0.0 0.0 0.0 22.649327160371357 0.0 0.0 0.0 22.71683509278982" Properties=species:S:1:pos:R:3:momenta:R:3:forces:R:3:magmoms:R:1 Energy:=T 4.1390592=T energy=-36.93500740466305 dipole="-0.011471982636321662 -0.30434072530128087 0.09108807992873141" magmom=0.0 free_energy=-36.93500740466305 pbc="T T T"
C       12.42054483      11.83521705      10.79034109      -0.37532873       0.34568859      -1.03755319      -0.09166618      -1.13185183       0.64345328       0.00000000
C       11.61168481      10.82616267      11.59805770      -0.22209077       0.29193084      -0.23225665      -0.44411231       0.25705344      -0.43999326       0.00000000
O       10.50763548      11.52567824      12.18289991       0.03743858      -0.18011083      -1.78501252      -0.46318155       4.13940233      -0.71822031       0.00000000
H       11.79572108      12.28758432      10.00139427       0.03161193      -0.07267791      -0.02293035      -1.71149263       1.26670148      -2.09906760       0.00000000
H       13.29182252      11.33456492      10.31032265      -0.03534070      -0.17948813      -0.05702875       2.05740319      -1.14558233      -1.15565822       0.00000000
H       12.80136869      12.63724966      11.45711763       0.15962691      -0.19872116       0.10780325       0.88450294       2.00174002       1.59404404       0.00000000
H       11.23951431       9.98800085      10.91723153      -0.33392780      -0.28807463      -0.20842470      -0.28030379      -1.70239956      -1.48428402       0.00000000
H       12.25862207      10.34022504      12.38164429       0.02218324      -0.26723890      -0.04182033       1.88581127      -1.25953288       1.64995576       0.00000000
H        9.99389828      10.85406300      12.71893912      -0.17177410      -0.36685447       0.09160817      -1.89532893      -2.45232851       1.97197467       0.00000000
9
Lattice="23.296006118037088 0.0 0.0 0.0 22.649327160371357 0.0 0.0 0.0 22.71683509278982" Properties=species:S:1:pos:R:3:momenta:R:3:forces:R:3:magmoms:R:1 Energy:=T 4.1390592=T energy=-37.09158120635177 dipole="-0.011478744105217095 -0.3035334323808889 0.09395861902981702" magmom=0.0 free_energy=-37.09158120635177 pbc="T T T"
C       12.41900089      11.83651693      10.78616310      -0.37163054       0.28699593      -1.00301712       0.24226415      -1.25823177       0.76292508       0.00000000
C       11.61073208      10.82738220      11.59706382      -0.24317961       0.28397370      -0.26205107      -0.41466771      -0.58108460      -0.77329579       0.00000000
O       10.50771549      11.52543739      12.17736616      -0.00454199       0.00493895      -1.80020467      -1.24635235       3.39619897       0.09956526       0.00000000
H       11.79521354      12.28555878       9.99776550      -0.05357019      -0.00854386      -0.12759545      -1.75729566       1.34496695      -2.16310693       0.00000000
H       13.29256226      11.32444891      10.30616126       0.06054610      -0.23271208      -0.11122671       1.84730124      -1.02180442      -1.05139243       0.00000000
H       12.81020460      12.62996231      11.46427747       0.20171651      -0.10287403       0.18290426       0.82947054       1.90134900       1.46422112       0.00000000
H       11.22290874       9.97192789      10.90530037      -0.34074329      -0.35770502      -0.27048893       0.00276310      -1.13309063      -1.04309706       0.00000000
H       12.26195928      10.32569716      12.38158082       0.10995198      -0.32509175       0.03334717       1.68830936      -1.09635198       1.41101671       0.00000000
H        9.98326107      10.83325430      12.72576207      -0.24826686      -0.46638706       0.17141003      -1.21961075      -1.60083982       1.27771851       0.00000000
9
Lattice="23.296006118037088 0.0 0.0 0.0 22.649327160371357 0.0 0.0 0.0 22.71683509278982" Properties=species:S:1:pos:R:3:momenta:R:3:forces:R:3:magmoms:R:1 Energy:=T 4.1390592=T energy=-37.262459637717306 dipole="-0.01141315019255652 -0.3006611707503196 0.09642364359576074" magmom=0.0 free_energy=-37.262459637717306 pbc="T T T"
C       12.41750560      11.83756413      10.78213833      -0.35015623       0.22758557      -0.96686758       0.63221299      -1.16107849       0.70915751       0.00000000
C       11.60969607      10.82848503      11.59591463      -0.26060691       0.23295232      -0.30472282      -0.29500755      -1.49660912      -0.96438408       0.00000000
O       10.50760759      11.52570857      12.17184743      -0.08518388       0.15224022      -1.77557670      -2.03754834       2.60220669       0.90333566       0.00000000
H       11.79050080      12.28675174       9.98896043      -0.13651504       0.05612182      -0.22963326      -1.62038639       1.28835010      -1.99207923       0.00000000
H       13.29772258      11.31188774      10.29948390       0.14222516      -0.27743802      -0.15812712       1.47883531      -0.79952636      -0.85848688       0.00000000
H       12.82102543      12.62722486      11.47494117       0.23913281      -0.01576989       0.24807363       0.69419707       1.64570784       1.18960722       0.00000000
H       11.20630978       9.95314344      10.89087310      -0.33393680      -0.39929554      -0.31066760       0.27441095      -0.56055981      -0.59305960       0.00000000
H       12.26933660      10.30854571      12.38489389       0.18521189      -0.37281976       0.09375352       1.37642645      -0.84722951       1.04885228       0.00000000
H        9.96970533      10.80861481      12.73564258      -0.29123247      -0.52261546       0.21654507      -0.53003615      -0.68889440       0.56027172       0.00000000
9
Lattice="23.296006118037088 0.0 0.0 0.0 22.649327160371357 0.0 0.0 0.0 22.71683509278982" Properties=species:S:1:pos:R:3:momenta:R:3:forces:R:3:magmoms:R:1 Energy:=T 4.1390592=T energy=-37.395737502987124 dipole="-0.011440040725936816 -0.29623739756384226 0.0983873701524462" magmom=0.0 free_energy=-37.395737502987124 pbc="T T T"
C       12.41613728      11.83837815      10.77825598      -0.30959761       0.17726459      -0.93712622       1.01941618      -0.88809328       0.50197064       0.00000000
C       11.60860081      10.82928731      11.59457177      -0.27064941       0.13764759      -0.35378947      -0.11394316      -2.38439235      -1.03370932       0.00000000
O       10.50719250      11.52637208      12.16646489      -0.20210666       0.26226458      -1.71402563      -2.72378375       1.87820775       1.60314834       0.00000000
H       11.78191050      12.29102771       9.97538834      -0.20900200       0.11527035      -0.31867593      -1.33142943       1.12029799      -1.63391821       0.00000000
H       13.30642173      11.29741330      10.29075218       0.20354568      -0.30998797      -0.19428705       1.01826025      -0.52597334      -0.61401849       0.00000000
H       12.83350746      12.62842557      11.48845159       0.26849444       0.05604111       0.29724005       0.50146801       1.27858145       0.81254923       0.00000000
H       11.19036748       9.93301759      10.87502663      -0.31423727      -0.41449329      -0.33014672       0.52779371      -0.05832312      -0.20016955       0.00000000
H       12.28000769      10.28936685      12.39071685       0.24369930      -0.40710634       0.13476129       1.00529902      -0.54898909       0.62106704       0.00000000
H        9.95488123      10.78232680      12.74686382      -0.30282590      -0.53687247       0.22844819       0.05792822       0.10832044      -0.07555251       0.00000000
9
Lattice="23.296006118037088 0.0 0.0 0.0 22.649327160371357 0.0 0.0 0.0 22.71683509278982" Properties=species:S:1:pos:R:3:momenta:R:3:forces:R:3:magmoms:R:1 Energy:=T 4.1390592=T energy=-37.459892065041224 dipole="-0.011736098842992003 -0.2909819938062004 0.09981182950921516" magmom=0.0 free_energy=-37.459892065041224 pbc="T T T"
C       12.41497369      11.83901381      10.77447443      -0.25119315       0.14284111      -0.91995527       1.35893139      -0.51370049       0.19726530       0.00000000
C       11.60748268      10.82961073      11.59302131      -0.27116846       0.00127774      -0.40424282       0.09280618      -3.16886367      -1.02085320       0.00000000
O       10.50636675      11.52731876      12.16132405      -0.34883444       0.33948850      -1.62176259      -3.25126830       1.26650649       2.15398917       0.00000000
H       11.77013411      12.29798453       9.95790630      -0.26457492       0.16414768      -0.38707271      -0.93161211       0.87008573      -1.15133722       0.00000000
H       13.31755757      11.28168022      10.28055113       0.24182598      -0.32858450      -0.21824534       0.54059109      -0.23131516      -0.36161184       0.00000000
H       12.84718951      12.63268592      11.50390643       0.28753489       0.10853581       0.32651332       0.27389765       0.85910878       0.37951723       0.00000000
H       11.17568818       9.91275216      10.85870117      -0.28330515      -0.40697926      -0.33170413       0.73182481       0.36430978       0.13674867       0.00000000
H       12.29308445      10.26887427      12.39802602       0.28343476      -0.42617766       0.15478497       0.61280936      -0.22763354       0.19433755       0.00000000
H        9.94019574      10.75629800      12.75790426      -0.28810410      -0.51525150       0.21243996       0.54157330       0.77212924      -0.57633518       0.00000000
9
Lattice="23.296006118037088 0.0 0.0 0.0 22.649327160371357 0.0 0.0 0.0 22.71683509278982" Properties=species:S:1:pos:R:3:momenta:R:3:forces:R:3:magmoms:R:1 Energy:=T 4.1390592=T energy=-37.44616272762631 dipole="-0.012377713651863447 -0.28567276641644673 0.10069966695527897" magmom=0.0 free_energy=-37.44616272762631 pbc="T T T"
C       12.41408300      11.83954631      10.77073251      -0.17776068       0.12739894      -0.91868620       1.63138750      -0.11513600      -0.14558606       0.00000000
C       11.60638318      10.82929776      11.59126584      -0.26168185      -0.16995384      -0.45302508       0.29350815      -3.80403266      -0.96565877       0.00000000
O       10.50505081      11.52845639      12.15650796      -0.51723400       0.38937189      -1.50561156      -3.60630241       0.76484602       2.57591596       0.00000000
H       11.75612837      12.30702347       9.93766912      -0.29957102       0.19997059      -0.43025456      -0.49349973       0.58869537      -0.60711514       0.00000000
H       13.32998703      11.26539361      10.26948475       0.25717637      -0.33239342      -0.23020087       0.08450762       0.07620846      -0.12524152       0.00000000
H       12.86152698      12.63900210      11.52026946       0.29509521       0.14055097       0.33452053       0.03397365       0.44461337      -0.05344746       0.00000000
H       11.16276013       9.89335853      10.84270294      -0.24354227      -0.38071698      -0.31827078       0.88740028       0.70514335       0.41028465       0.00000000
H       12.30762766      10.24783696      12.40580024       0.30425446      -0.42962153       0.15506444       0.23501073       0.08739192      -0.18295685       0.00000000
H        9.92680624      10.73211689      12.76756553      -0.25302187      -0.46518380       0.17510050       0.88704628       1.26672860      -0.94420308       0.00000000
9
Lattice="23.296006118037088 0.0 0.0 0.0 22.649327160371357 0.0 0.0 0.0 22.71683509278982" Properties=species:S:1:pos:R:3:momenta:R:3:forces:R:3:magmoms:R:1 Energy:=T 4.1390592=T energy=-37.44616272762631 dipole="-0.012377713651863447 -0.28567276641644673 0.10069966695527897" magmom=0.0 free_energy=-37.44616272762631 pbc="T T T"
C       12.41354034      11.84009226      10.76692819      -0.08406470       0.14689501      -0.94902497       1.63138750      -0.11513600      -0.14558606       0.00000000
C       11.60535999      10.82817327      11.58932305      -0.23547306      -0.38803389      -0.49584117       0.29350815      -3.80403266      -0.96565877       0.00000000
O       10.50317532      11.52967784      12.15210415      -0.70703114       0.39714084      -1.35721336      -3.60630241       0.76484602       2.57591596       0.00000000
H       11.74145572      12.31712966       9.91660708      -0.29368512       0.20871526      -0.42319637      -0.49349973       0.58869537      -0.60711514       0.00000000
H       13.34208528      11.24968292      10.25838825       0.22771204      -0.30355110      -0.21943968       0.08450762       0.07620846      -0.12524152       0.00000000
H       12.87567430      12.64595504      11.53604923       0.28097444       0.13853132       0.30622552       0.03397365       0.44461337      -0.05344746       0.00000000
H       11.15209243       9.87597016      10.82794473      -0.19231732      -0.32806977      -0.28344542       0.88740028       0.70514335       0.41028465       0.00000000
H       12.32233666      10.22734434      12.41278465       0.29313975      -0.40607487       0.12695027       0.23501073       0.08739192      -0.18295685       0.00000000
H        9.91583495      10.71139202      12.77466788      -0.19355360      -0.37985440       0.11251117       0.88704628       1.26672860      -0.94420308       0.00000000
9
Lattice="23.296006118037088 0.0 0.0 0.0 22.649327160371357 0.0 0.0 0.0 22.71683509278982" Properties=species:S:1:pos:R:3:momenta:R:3:forces:R:3:magmoms:R:1 Energy:=T 4.1390592=T energy=-37.26264153660932 dipole="-0.014078947450170645 -0.27807104355040296 0.10093085534456339" magmom=0.0 free_energy=-37.26264153660932 pbc="T T T"
C       12.41339551      11.84074763      10.76297130       0.01209312       0.17238792      -0.98445108       1.93474050       0.49323882      -0.68287574       0.00000000
C       11.60445746      10.82612438      11.58721081      -0.20624065      -0.61201528      -0.53739474       0.58964296      -4.51798225      -0.84836863       0.00000000
O       10.50070994      11.53089466      12.14817526      -0.89733453       0.39744676      -1.20497836      -3.83695312       0.04313966       3.04930701       0.00000000
H       11.72750953      12.32736222       9.89642975      -0.27943210       0.21205348      -0.40557942       0.27683211       0.08313084       0.34768503       0.00000000
H       13.35217697      11.23581335      10.24810093       0.19228218      -0.27127047      -0.20540728      -0.60426632       0.54514778       0.23328154       0.00000000
H       12.88890720      12.65250161      11.55011033       0.26266705       0.12912617       0.26996011      -0.36339579      -0.21318536      -0.75858603       0.00000000
H       11.14401932       9.86138899      10.81508193      -0.13929503      -0.27105766      -0.24527121       1.07493143       1.14855825       0.76246165       0.00000000
H       12.33619336      10.20826603      12.41817121       0.27578598      -0.37735155       0.09237813      -0.35051271       0.57864533      -0.74012548       0.00000000
H        9.90794495      10.69510108      12.77852945      -0.13164970      -0.28906206       0.04632302       1.23321621       1.84435791      -1.34103200       0.00000000
9
Lattice="23.296006118037088 0.0 0.0 0.0 22.649327160371357 0.0 0.0 0.0 22.71683509278982" Properties=species:S:1:pos:R:3:momenta:R:3:forces:R:3:magmoms:R:1 Energy:=T 4.1390592=T energy=-37.15045105250092 dipole="-0.014820579561395398 -0.27642646705079854 0.1001792881640457" magmom=0.0 free_energy=-37.15045105250092 pbc="T T T"
C       12.41363924      11.84150206      10.75887727       0.10840503       0.20125029      -1.02221742       1.98727558       0.68209502      -0.85504621       0.00000000
C       11.60367334      10.82316816      11.58492819      -0.17509179      -0.83660650      -0.57809449       0.67880148      -4.62782675      -0.80900776       0.00000000
O       10.49766607      11.53211799      12.14470611      -1.08434082       0.39312713      -1.05365365      -3.77832124      -0.21904340       3.11294106       0.00000000
H       11.71422580      12.33779371       9.87708443      -0.25857780       0.21101855      -0.37897235       0.57239690      -0.12527527       0.73580879       0.00000000
H       13.36082267      11.22324832      10.23837185       0.15698506      -0.24029569      -0.19110290      -0.83310378       0.71620798       0.34922190       0.00000000
H       12.90127051      12.65853804      11.56235613       0.24085336       0.11289007       0.22623585      -0.52490184      -0.44798186      -1.02195423       0.00000000
H       11.13851850       9.84955631      10.80404369      -0.08541625      -0.21129655      -0.20489909       1.11912145       1.28503473       0.88157254       0.00000000
H       12.34921128      10.19057242      12.42178666       0.25348386      -0.34469213       0.05164844      -0.55767455       0.75131236      -0.91846979       0.00000000
H        9.90300603      10.68322368      12.77918194      -0.06981273      -0.19518755      -0.02143716       1.28491033       1.97840234      -1.41829946       0.00000000
9
Lattice="23.296006118037088 0.0 0.0 0.0 22.649327160371357 0.0 0.0 0.0 22.71683509278982" Properties=species:S:1:pos:R:3:momenta:R:3:forces:R:3:magmoms:R:1 Energy:=T 4.1390592=T energy=-37.05693894967234 dipole="-0.015260765521712318 -0.27641686304626306 0.09881492251613626" magmom=0.0 free_energy=-37.05693894967234 pbc="T T T"
C       12.41428206      11.84239348      10.75461153       0.20596761       0.23753988      -1.06699176       1.98566990       0.79569080      -0.96825539       0.00000000
C       11.60302554      10.81928255      11.58248310      -0.14050382      -1.06318742      -0.61736668       0.72969059      -4.59900660      -0.79023504       0.00000000
O       10.49405256      11.53330829      12.14170628      -1.26634829       0.37723694      -0.90165004      -3.63339075      -0.42803743       3.07695345       0.00000000
H       11.70231181      12.34792542       9.85949989      -0.22411904       0.20058442      -0.33535813       0.83083373      -0.29962364       1.04025047       0.00000000
H       13.36747475      11.21239717      10.22947846       0.11193277      -0.20183166      -0.17191099      -1.00151635       0.85012524       0.43231144       0.00000000
H       12.91237773      12.66350245      11.57215641       0.21191819       0.08638079       0.17098937      -0.65339692      -0.63152949      -1.22779408       0.00000000
H       11.13569573       9.84079870      10.79511505      -0.03009605      -0.14612205      -0.15974250       1.13362894       1.36900288       0.95729529       0.00000000
H       12.36089469      10.17467669      12.42320421       0.22178623      -0.30447620       0.00352594      -0.73311714       0.88636146      -1.04117580       0.00000000
H        9.90114188      10.67608057      12.77644045      -0.00678291      -0.09627955      -0.09146332       1.28179163       2.04933111      -1.43330755       0.00000000
9
Lattice="23.296006118037088 0.0 0.0 0.0 22.649327160371357 0.0 0.0 0.0 22.71683509278982" Properties=species:S:1:pos:R:3:momenta:R:3:forces:R:3:magmoms:R:1 Energy:=T 4.1390592=T energy=-37.001638250529304 dipole="-0.015205816346888144 -0.2780895122216785 0.09684059764950086" magmom=0.0 free_energy=-37.001638250529304 pbc="T T T"
C       12.41532366      11.84344468      10.75015133       0.30215571       0.27768629      -1.11593857       1.93130409       0.83915193      -1.02495765       0.00000000
C       11.60252429      10.81447333      11.57987931      -0.10427156      -1.28522439      -0.65602784       0.74576039      -4.44278771      -0.78412561       0.00000000
O       10.48989124      11.53443406      12.13917036      -1.43915210       0.35237862      -0.75337192      -3.40353015      -0.58424375       2.96123152       0.00000000
H       11.69238599      12.35734014       9.84440466      -0.17863151       0.18273149      -0.27871326       1.02151054      -0.42738356       1.26644323       0.00000000
H       13.37173022      11.20358036      10.22161958       0.06010605      -0.15760741      -0.14934031      -1.10897258       0.95077574       0.48681220       0.00000000
H       12.92192138      12.66695562      11.57901860       0.17748497       0.05214436       0.10698483      -0.74879325      -0.76264700      -1.37860031       0.00000000
H       11.13558572       9.83531710      10.78847721       0.02519334      -0.07821348      -0.11179911       1.11786689       1.39637150       0.99505661       0.00000000
H       12.37082377      10.16090201      12.42213025       0.18274490      -0.25813443      -0.04936500      -0.85672481       1.00076954      -1.11265044       0.00000000
H        9.90234505      10.67384149      12.77026908       0.05467406       0.00423160      -0.16072223       1.22086050       2.04368644      -1.38705502       0.00000000
9
Lattice="23.296006118037088 0.0 0.0 0.0 22.649327160371357 0.0 0.0 0.0 22.71683509278982" Properties=species:S:1:pos:R:3:momenta:R:3:forces:R:3:magmoms:R:1 Energy:=T 4.1390592=T energy=-36.99628809759508 dipole="-0.014494656464711262 -0.2813933587164019 0.09430284496664897" magmom=0.0 free_energy=-36.99628809759508 pbc="T T T"
C       12.41675311      11.84466442      10.74548529       0.39451322       0.31846599      -1.16634243       1.82968047       0.82147991      -1.02758957       0.00000000
C       11.60217280      10.80877187      11.57711805      -0.06787216      -1.49636816      -0.69427614       0.73649684      -4.15541396      -0.77342270       0.00000000
O       10.48521679      11.53547175      12.13708090      -1.59866198       0.32107638      -0.61239205      -3.09203474      -0.69044676       2.77975391       0.00000000
H       11.68490463      12.36573213       9.83234002      -0.12499868       0.15929283      -0.21247976       1.16252672      -0.52708598       1.43071883       0.00000000
H       13.37333193      11.19703874      10.21492564       0.00445356      -0.10949669      -0.12502822      -1.15730952       1.00838992       0.50322550       0.00000000
H       12.92967317      12.66858378      11.58258180       0.13930234       0.01266885       0.03711634      -0.80608089      -0.84487576      -1.46658608       0.00000000
H       11.13815075       9.83317700      10.78422052       0.07911691      -0.00994009      -0.06281688       1.07800979       1.38385876       0.99959885       0.00000000
H       12.37870270      10.14952217      12.41839372       0.13871476      -0.20725754      -0.10463627      -0.93627161       1.07104033      -1.13810727       0.00000000
H        9.90646973      10.67649293      12.76077850       0.11185174       0.10255482      -0.22626254       1.10753018       1.96023391      -1.28187914       0.00000000
9
Lattice="23.296006118037088 0.0 0.0 0.0 22.649327160371357 0.0 0.0 0.0 22.71683509278982" Properties=species:S:1:pos:R:3:momenta:R:3:forces:R:3:magmoms:R:1 Energy:=T 4.1390592=T energy=-37.04371211577613 dipole="-0.013024024089914788 -0.28621841828986017 0.09128063690460471" magmom=0.0 free_energy=-37.04371211577613 pbc="T T T"
C       12.41855002      11.84604913      10.74061288       0.48071239       0.35698446      -1.21548648       1.68052419       0.74707022      -0.97365543       0.00000000
C       11.60196922      10.80223590      11.57420147      -0.03231820      -1.69017824      -0.73157906       0.71133225      -3.73692439      -0.74562754       0.00000000
O       10.48007615      11.53640533      12.13541054      -1.74061148       0.28595507      -0.48202619      -2.68843582      -0.73976399       2.52900758       0.00000000
H       11.68020520      12.37286280       9.82369907      -0.06588129       0.13159607      -0.13947110       1.24485293      -0.60078223       1.54234148       0.00000000
H       13.37216421      11.19291019      10.20943591      -0.05222585      -0.05932795      -0.10054034      -1.15079083       1.03458258       0.49397015       0.00000000
H       12.93549602      12.66819017      11.58263549       0.09903282      -0.02971030      -0.03582340      -0.83377519      -0.88088910      -1.50366758       0.00000000
H       11.14329545       9.83434846      10.78235587       0.13048017       0.05657629      -0.01457125       1.01360638       1.32482298       0.96506047       0.00000000
H       12.38434115      10.14070531      12.41193372       0.09163425      -0.15387572      -0.16019713      -0.98094171       1.10277532      -1.12444344       0.00000000
H        9.91324471      10.68383519      12.74822039       0.16200933       0.19464831      -0.28542837       0.93498836       1.78999909      -1.12747298       0.00000000
9
Lattice="23.296006118037088 0.0 0.0 0.0 22.649327160371357 0.0 0.0 0.0 22.71683509278982" Properties=species:S:1:pos:R:3:momenta:R:3:forces:R:3:magmoms:R:1 Energy:=T 4.1390592=T energy=-37.13711035526498 dipole="-0.01075266439149664 -0.2924046815749061 0.08788343832690591" magmom=0.0 free_energy=-37.13711035526498 pbc="T T T"
C       12.42068442      11.84758387      10.73554494       0.55842181       0.39053792      -1.26074314       1.48396047       0.61929471      -0.86928732       0.00000000
C       11.60190850      10.79494946      11.57113514       0.00169924      -1.86121390      -0.76780002       0.67392683      -3.22799364      -0.72936300       0.00000000
O       10.47453018      11.53722739      12.13412147      -1.86053376       0.25038325      -0.36618544      -2.19504209      -0.70879237       2.18826205       0.00000000
H       11.67848468      12.37855582       9.81874893      -0.00389971       0.10110370      -0.06267984       1.27916236      -0.64092887       1.58475406       0.00000000
H       13.36824266      11.19125739      10.20512824      -0.10716579      -0.00879941      -0.07724066      -1.08647448       1.02304178       0.45483994       0.00000000
H       12.93932366      12.66568859      11.57909091       0.05805878      -0.07285688      -0.10950196      -0.83477051      -0.87612675      -1.49667249       0.00000000
H       11.15086570       9.83869021      10.78280059       0.17812541       0.11905693       0.03097974       0.92660406       1.21951516       0.88986814       0.00000000
H       12.38763222      10.13452739      12.40278294       0.04326919      -0.09983233      -0.21424167      -0.98858139       1.09798080      -1.07635942       0.00000000
H        9.92225711      10.69546089      12.73296425       0.20176164       0.27584410      -0.33482100       0.68380624       1.51645796      -0.88389515       0.00000000
9
Lattice="23.296006118037088 0.0 0.0 0.0 22.649327160371357 0.0 0.0 0.0 22.71683509278982" Properties=species:S:1:pos:R:3:momenta:R:3:forces:R:3:magmoms:R:1 Energy:=T 4.1390592=T energy=-37.13711035526498 dipole="-0.01075266439149664 -0.2924046815749061 0.08788343832690591" magmom=0.0 free_energy=-37.13711035526498 pbc="T T T"
C       12.42309257      11.84922517      10.73031771       0.61239677       0.40671806      -1.29107884       1.48396047       0.61929471      -0.86928732       0.00000000
C       11.60197835      10.78706933      11.56792247       0.03115933      -1.97985724      -0.80363220       0.67392683      -3.22799364      -0.72936300       0.00000000
O       10.46869651      11.53795282      12.13312876      -1.92447031       0.22852390      -0.29393125      -2.19504209      -0.70879237       2.18826205       0.00000000
H       11.67979979      12.38270258       9.81756430       0.05598228       0.06966279       0.01178764       1.27916236      -0.64092887       1.58475406       0.00000000
H       13.36186411      11.19200071      10.20183018      -0.15040205       0.03741352      -0.06041853      -1.08647448       1.02304178       0.45483994       0.00000000
H       12.94117744      12.66113461      11.57201426       0.01887643      -0.11263624      -0.17940285      -0.83477051      -0.87612675      -1.49667249       0.00000000
H       11.16052730       9.84577241      10.78523775       0.21557337       0.16710091       0.06539236       0.92660406       1.21951516       0.88986814       0.00000000
H       12.38858781      10.13093191      12.39115138      -0.00271128      -0.04937711      -0.26064558      -0.98858139       1.09798080      -1.07635942       0.00000000
H        9.93247805      10.71023056      12.71600893       0.20549095       0.31616150      -0.34912483       0.68380624       1.51645796      -0.88389515       0.00000000
9
Lattice="23.296006118037088 0.0 0.0 0.0 22.649327160371357 0.0 0.0 0.0 22.71683509278982" Properties=species:S:1:pos:R:3:momenta:R:3:forces:R:3:magmoms:R:1 Energy:=T 4.1390592=T energy=-37.383225669727295 dipole="-0.004018615133936684 -0.3073270766291025 0.0805985960094669" magmom=0.0 free_energy=-37.383225669727295 pbc="T T T"
C       12.42569265      11.85091004      10.72498639       0.66007721       0.41742743      -1.31744442       0.98595729       0.21919485      -0.55531048       0.00000000
C       11.60216332      10.77875802      11.56456297       0.05962987      -2.07925884      -0.83847586       0.58613129      -1.90079857      -0.68771519       0.00000000
O       10.46271477      11.53863042      12.13231686      -1.97297667       0.21178010      -0.23335325      -0.99312264      -0.36463181       1.26756240       0.00000000
H       11.68394000      12.38534427       9.81989760       0.11493931       0.03861306       0.08498643       1.22027855      -0.63545559       1.51070554       0.00000000
H       13.35358637      11.19490324      10.19924062      -0.18968181       0.08157158      -0.04593398      -0.80590741       0.89589732       0.29376928       0.00000000
H       12.94116312      12.65471249      11.56160857      -0.01875007      -0.14965881      -0.24617744      -0.75157007      -0.72696058      -1.32802976       0.00000000
H       11.17187276       9.85497376      10.78917291       0.24885244       0.20944914       0.09533857       0.65152166       0.83893822       0.59347331       0.00000000