9
Lattice="23.296006118037088 0.0 0.0 0.0 22.649327160371357 0.0 0.0 0.0 22.71683509278982" Properties=species:S:1:pos:R:3:momenta:R:3:forces:R:3:magmoms:R:1 Energy:=T 4.1390592=T energy=-37.36326959839482 dipole="0.010339290708768724 -0.2638322656078739 0.09573616949174953" magmom=0.0 free_energy=-37.36326959839482 pbc="T T T"
C       12.40704357      11.83951983      10.79834027      -0.45877501       0.55020091      -0.23448633       1.08304353       2.54752273      -2.54202566       0.00000000
C       11.60467991      10.86027995      11.56896345      -0.35620575       0.43669908      -0.66628045      -0.54209349      -4.44906505       1.71727611       0.00000000
O       10.49766180      11.56856031      12.18904612      -0.86070718       2.00682324       0.23669052      -3.02732669       0.54190003       1.84518108       0.00000000
H       11.75155666      12.32482834       9.84641581      -0.08678237       0.09485936      -0.32834906       0.51344448      -0.21600726       0.94779048       0.00000000
H       13.32329699      11.26288813      10.27994780       0.38601936      -0.37907991      -0.25506409       0.63735304      -0.31524778      -0.32702042       0.00000000
H       12.88796367      12.71748566      11.49327872       0.27587639       0.32721986       0.20406285      -0.19696822       0.04988199      -0.08701732       0.00000000
H       11.25481261       9.87343766      10.80110390       0.05948915      -0.29597263      -0.30323433       0.50463274       0.81405930       0.63016527       0.00000000
H       12.32293623      10.35051119      12.49678448       0.23792794      -0.05833710       0.22326763      -0.13070006       0.06080142      -0.95998537       0.00000000
H        9.92957713      10.81588371      12.90716371      -0.11467093      -0.13259856       0.42139087       1.10674682       0.94915685      -1.23774855       0.00000000
9
Lattice="23.296006118037088 0.0 0.0 0.0 22.649327160371357 0.0 0.0 0.0 22.71683509278982" Properties=species:S:1:pos:R:3:momenta:R:3:forces:R:3:magmoms:R:1 Energy:=T 4.1390592=T energy=-37.36326959839482 dipole="0.010339290708768724 -0.2638322656078739 0.09573616949174953" magmom=0.0 free_energy=-37.36326959839482 pbc="T T T"
C       12.40534899      11.84204448      10.79708819      -0.35586276       0.68786957      -0.38513412       1.08304353       2.54752273      -2.54202566       0.00000000
C       11.60317106      10.86157710      11.56642901      -0.38136203       0.19031815      -0.56986217      -0.54209349      -4.44906505       1.71727611       0.00000000
O       10.49478234      11.57472778      12.18993195      -1.01626089       2.00208054       0.34445823      -3.02732669       0.54190003       1.84518108       0.00000000
H       11.74824758      12.32900223       9.83196697      -0.04394403       0.07323202      -0.25752993       0.51344448      -0.21600726       0.94779048       0.00000000
H       13.34236023      11.24438039      10.26741324       0.39187710      -0.37711333      -0.25665256       0.63735304      -0.31524778      -0.32702042       0.00000000
H       12.90093989      12.73313578      11.50286403       0.25383632       0.31112895       0.18676156      -0.19696822       0.04988199      -0.08701732       0.00000000
H       11.25838746       9.86028432      10.78731851       0.08803760      -0.23947898      -0.25894450       0.50463274       0.81405930       0.63016527       0.00000000
H       12.33401344      10.34795679      12.50605471       0.21033172      -0.04254056       0.14932616      -0.13070006       0.06080142      -0.95998537       0.00000000
H        9.92555710      10.81084866      12.92588090      -0.04753810      -0.07042970       0.34271835       1.10674682       0.94915685      -1.23774855       0.00000000
9
Lattice="23.296006118037088 0.0 0.0 0.0 22.649327160371357 0.0 0.0 0.0 22.71683509278982" Properties=species:S:1:pos:R:3:momenta:R:3:forces:R:3:magmoms:R:1 Energy:=T 4.1390592=T energy=-37.36326959839482 dipole="0.010339290708768724 -0.2638322656078739 0.09573616949174953" magmom=0.0 free_energy=-37.36326959839482 pbc="T T T"
C       12.40413329      11.84514528      10.79519061      -0.22857145       0.83138389      -0.54859217       1.08304353       2.54752273      -2.54202566       0.00000000
C       11.60156110      10.86183638      11.56430307      -0.40585822      -0.06910797      -0.46729037      -0.54209349      -4.44906505       1.71727611       0.00000000
O       10.49142240      11.58085222      12.19116095      -1.17232250       1.97961169       0.45880524      -3.02732669       0.54190003       1.84518108       0.00000000
H       11.74727443      12.33196460       9.82132020       0.00880796       0.04530897      -0.17270744       0.51344448      -0.21600726       0.94779048       0.00000000
H       13.36148438      11.22613943      10.25493768       0.39631163      -0.37325251      -0.25721702       0.63735304      -0.31524778      -0.32702042       0.00000000
H       12.91269935      12.74780436      11.51147814       0.22820424       0.29137495       0.16791502      -0.19696822       0.04988199      -0.08701732       0.00000000
H       11.26339164       9.85010106      10.77587044       0.11778653      -0.17539988      -0.20838482       0.50463274       0.81405930       0.63016527       0.00000000
H       12.34343250      10.34636572      12.51133592       0.17029719      -0.01905378       0.06004637      -0.13070006       0.06080142      -0.95998537       0.00000000
H        9.92494467      10.80902052      12.94056071       0.02361571      -0.00289723       0.25765802       1.10674682       0.94915685      -1.23774855       0.00000000
9
Lattice="23.296006118037088 0.0 0.0 0.0 22.649327160371357 0.0 0.0 0.0 22.71683509278982" Properties=species:S:1:pos:R:3:momenta:R:3:forces:R:3:magmoms:R:1 Energy:=T 4.1390592=T energy=-37.36326959839482 dipole="0.010339290708768724 -0.2638322656078739 0.09573616949174953" magmom=0.0 free_energy=-37.36326959839482 pbc="T T T"
C       12.40704357      11.83951983      10.79834027      -0.45877501       0.55020091      -0.23448633       1.08304353       2.54752273      -2.54202566       0.00000000
C       11.60467991      10.86027995      11.56896345      -0.35620575       0.43669908      -0.66628045      -0.54209349      -4.44906505       1.71727611       0.00000000
O       10.49766180      11.56856031      12.18904612      -0.86070718       2.00682324       0.23669052      -3.02732669       0.54190003       1.84518108       0.00000000
H       11.75155666      12.32482834       9.84641581      -0.08678237       0.09485936      -0.32834906       0.51344448      -0.21600726       0.94779048       0.00000000
H       13.32329699      11.26288813      10.27994780       0.38601936      -0.37907991      -0.25506409       0.63735304      -0.31524778      -0.32702042       0.00000000
H       12.88796367      12.71748566      11.49327872       0.27587639       0.32721986       0.20406285      -0.19696822       0.04988199      -0.08701732       0.00000000
H       11.25481261       9.87343766      10.80110390       0.05948915      -0.29597263      -0.30323433       0.50463274       0.81405930       0.63016527       0.00000000
H       12.32293623      10.35051119      12.49678448       0.23792794      -0.05833710       0.22326763      -0.13070006       0.06080142      -0.95998537       0.00000000
H        9.92957713      10.81588371      12.90716371      -0.11467093      -0.13259856       0.42139087       1.10674682       0.94915685      -1.23774855       0.00000000
9
Lattice="23.296006118037088 0.0 0.0 0.0 22.649327160371357 0.0 0.0 0.0 22.71683509278982" Properties=species:S:1:pos:R:3:momenta:R:3:forces:R:3:magmoms:R:1 Energy:=T 4.1390592=T energy=-37.36326959839482 dipole="0.010339290708768724 -0.2638322656078739 0.09573616949174953" magmom=0.0 free_energy=-37.36326959839482 pbc="T T T"
C       12.40534899      11.84204448      10.79708819      -0.35586276       0.68786957      -0.38513412       1.08304353       2.54752273      -2.54202566       0.00000000
C       11.60317106      10.86157710      11.56642901      -0.38136203       0.19031815      -0.56986217      -0.54209349      -4.44906505       1.71727611       0.00000000
O       10.49478234      11.57472778      12.18993195      -1.01626089       2.00208054       0.34445823      -3.02732669       0.54190003       1.84518108       0.00000000
H       11.74824758      12.32900223       9.83196697      -0.04394403       0.07323202      -0.25752993       0.51344448      -0.21600726       0.94779048       0.00000000
H       13.34236023      11.24438039      10.26741324       0.39187710      -0.37711333      -0.25665256       0.63735304      -0.31524778      -0.32702042       0.00000000
H       12.90093989      12.73313578      11.50286403       0.25383632       0.31112895       0.18676156      -0.19696822       0.04988199      -0.08701732       0.00000000
H       11.25838746       9.86028432      10.78731851       0.08803760      -0.23947898      -0.25894450       0.50463274       0.81405930       0.63016527       0.00000000
H       12.33401344      10.34795679      12.50605471       0.21033172      -0.04254056       0.14932616      -0.13070006       0.06080142      -0.95998537       0.00000000
H        9.92555710      10.81084866      12.92588090      -0.04753810      -0.07042970       0.34271835       1.10674682       0.94915685      -1.23774855       0.00000000
9
Lattice="23.296006118037088 0.0 0.0 0.0 22.649327160371357 0.0 0.0 0.0 22.71683509278982" Properties=species:S:1:pos:R:3:momenta:R:3:forces:R:3:magmoms:R:1 Energy:=T 4.1390592=T energy=-37.36326959839482 dipole="0.010339290708768724 -0.2638322656078739 0.09573616949174953" magmom=0.0 free_energy=-37.36326959839482 pbc="T T T"
C       12.40413329      11.84514528      10.79519061      -0.22857145       0.83138389      -0.54859217       1.08304353       2.54752273      -2.54202566       0.00000000
C       11.60156110      10.86183638      11.56430307      -0.40585822      -0.06910797      -0.46729037      -0.54209349      -4.44906505       1.71727611       0.00000000
O       10.49142240      11.58085222      12.19116095      -1.17232250       1.97961169       0.45880524      -3.02732669       0.54190003       1.84518108       0.00000000
H       11.74727443      12.33196460       9.82132020       0.00880796       0.04530897      -0.17270744       0.51344448      -0.21600726       0.94779048       0.00000000
H       13.36148438      11.22613943      10.25493768       0.39631163      -0.37325251      -0.25721702       0.63735304      -0.31524778      -0.32702042       0.00000000
H       12.91269935      12.74780436      11.51147814       0.22820424       0.29137495       0.16791502      -0.19696822       0.04988199      -0.08701732       0.00000000
H       11.26339164       9.85010106      10.77587044       0.11778653      -0.17539988      -0.20838482       0.50463274       0.81405930       0.63016527       0.00000000
H       12.34343250      10.34636572      12.51133592       0.17029719      -0.01905378       0.06004637      -0.13070006       0.06080142      -0.95998537       0.00000000
H        9.92494467      10.80902052      12.94056071       0.02361571      -0.00289723       0.25765802       1.10674682       0.94915685      -1.23774855       0.00000000
9
Lattice="23.296006118037088 0.0 0.0 0.0 22.649327160371357 0.0 0.0 0.0 22.71683509278982" Properties=species:S:1:pos:R:3:momenta:R:3:forces:R:3:magmoms:R:1 Energy:=T 4.1390592=T energy=-37.36326959839482 dipole="0.010339290708768724 -0.2638322656078739 0.09573616949174953" magmom=0.0 free_energy=-37.36326959839482 pbc="T T T"
C       12.40704357      11.83951983      10.79834027      -0.45877501       0.55020091      -0.23448633       1.08304353       2.54752273      -2.54202566       0.00000000
C       11.60467991      10.86027995      11.56896345      -0.35620575       0.43669908      -0.66628045      -0.54209349      -4.44906505       1.71727611       0.00000000
O       10.49766180      11.56856031      12.18904612      -0.86070718       2.00682324       0.23669052      -3.02732669       0.54190003       1.84518108       0.00000000
H       11.75155666      12.32482834       9.84641581      -0.08678237       0.09485936      -0.32834906       0.51344448      -0.21600726       0.94779048       0.00000000
H       13.32329699      11.26288813      10.27994780       0.38601936      -0.37907991      -0.25506409       0.63735304      -0.31524778      -0.32702042       0.00000000
H       12.88796367      12.71748566      11.49327872       0.27587639       0.32721986       0.20406285      -0.19696822       0.04988199      -0.08701732       0.00000000
H       11.25481261       9.87343766      10.80110390       0.05948915      -0.29597263      -0.30323433       0.50463274       0.81405930       0.63016527       0.00000000
H       12.32293623      10.35051119      12.49678448       0.23792794      -0.05833710       0.22326763      -0.13070006       0.06080142      -0.95998537       0.00000000
H        9.92957713      10.81588371      12.90716371      -0.11467093      -0.13259856       0.42139087       1.10674682       0.94915685      -1.23774855       0.00000000
9
Lattice="23.296006118037088 0.0 0.0 0.0 22.649327160371357 0.0 0.0 0.0 22.71683509278982" Properties=species:S:1:pos:R:3:momenta:R:3:forces:R:3:magmoms:R:1 Energy:=T 4.1390592=T energy=-37.36326959839482 dipole="0.010339290708768724 -0.2638322656078739 0.09573616949174953" magmom=0.0 free_energy=-37.36326959839482 pbc="T T T"
C       12.40534899      11.84204448      10.79708819      -0.35586276       0.68786957      -0.38513412       1.08304353       2.54752273      -2.54202566       0.00000000
C       11.60317106      10.86157710      11.56642901      -0.38136203       0.19031815      -0.56986217      -0.54209349      -4.44906505       1.71727611       0.00000000
O       10.49478234      11.57472778      12.18993195      -1.01626089       2.00208054       0.34445823      -3.02732669       0.54190003       1.84518108       0.00000000
H       11.74824758      12.32900223       9.83196697      -0.04394403       0.07323202      -0.25752993       0.51344448      -0.21600726       0.94779048       0.00000000
H       13.34236023      11.24438039      10.26741324       0.39187710      -0.37711333      -0.25665256       0.63735304      -0.31524778      -0.32702042       0.00000000
H       12.90093989      12.73313578      11.50286403       0.25383632       0.31112895       0.18676156      -0.19696822       0.04988199      -0.08701732       0.00000000
H       11.25838746       9.86028432      10.78731851       0.08803760      -0.23947898      -0.25894450       0.50463274       0.81405930       0.63016527       0.00000000
H       12.33401344      10.34795679      12.50605471       0.21033172      -0.04254056       0.14932616      -0.13070006       0.06080142      -0.95998537       0.00000000
H        9.92555710      10.81084866      12.92588090      -0.04753810      -0.07042970       0.34271835       1.10674682       0.94915685      -1.23774855       0.00000000
9
Lattice="23.296006118037088 0.0 0.0 0.0 22.649327160371357 0.0 0.0 0.0 22.71683509278982" Properties=species:S:1:pos:R:3:momenta:R:3:forces:R:3:magmoms:R:1 Energy:=T 4.1390592=T energy=-37.36326959839482 dipole="0.010339290708768724 -0.2638322656078739 0.09573616949174953" magmom=0.0 free_energy=-37.36326959839482 pbc="T T T"
C       12.40413329      11.84514528      10.79519061      -0.22857145       0.83138389      -0.54859217       1.08304353       2.54752273      -2.54202566       0.00000000
C       11.60156110      10.86183638      11.56430307      -0.40585822      -0.06910797      -0.46729037      -0.54209349      -4.44906505       1.71727611       0.00000000
O       10.49142240      11.58085222      12.19116095      -1.17232250       1.97961169       0.45880524      -3.02732669       0.54190003       1.84518108       0.00000000
H       11.74727443      12.33196460       9.82132020       0.00880796       0.04530897      -0.17270744       0.51344448      -0.21600726       0.94779048       0.00000000
H       13.36148438      11.22613943      10.25493768       0.39631163      -0.37325251      -0.25721702       0.63735304      -0.31524778      -0.32702042       0.00000000
H       12.91269935      12.74780436      11.51147814       0.22820424       0.29137495       0.16791502      -0.19696822       0.04988199      -0.08701732       0.00000000
H       11.26339164       9.85010106      10.77587044       0.11778653      -0.17539988      -0.20838482       0.50463274       0.81405930       0.63016527       0.00000000
H       12.34343250      10.34636572      12.51133592       0.17029719      -0.01905378       0.06004637      -0.13070006       0.06080142      -0.95998537       0.00000000
H        9.92494467      10.80902052      12.94056071       0.02361571      -0.00289723       0.25765802       1.10674682       0.94915685      -1.23774855       0.00000000
9
Lattice="23.296006118037088 0.0 0.0 0.0 22.649327160371357 0.0 0.0 0.0 22.71683509278982" Properties=species:S:1:pos:R:3:momenta:R:3:forces:R:3:magmoms:R:1 Energy:=T 4.1390592=T energy=-37.36326959839482 dipole="0.010339290708768724 -0.2638322656078739 0.09573616949174953" magmom=0.0 free_energy=-37.36326959839482 pbc="T T T"
C       12.40704357      11.83951983      10.79834027      -0.45877501       0.55020091      -0.23448633       1.08304353       2.54752273      -2.54202566       0.00000000
C       11.60467991      10.86027995      11.56896345      -0.35620575       0.43669908      -0.66628045      -0.54209349      -4.44906505       1.71727611       0.00000000
O       10.49766180      11.56856031      12.18904612      -0.86070718       2.00682324       0.23669052      -3.02732669       0.54190003       1.84518108       0.00000000
H       11.75155666      12.32482834       9.84641581      -0.08678237       0.09485936      -0.32834906       0.51344448      -0.21600726       0.94779048       0.00000000
H       13.32329699      11.26288813      10.27994780       0.38601936      -0.37907991      -0.25506409       0.63735304      -0.31524778      -0.32702042       0.00000000
H       12.88796367      12.71748566      11.49327872       0.27587639       0.32721986       0.20406285      -0.19696822       0.04988199      -0.08701732       0.00000000
H       11.25481261       9.87343766      10.80110390       0.05948915      -0.29597263      -0.30323433       0.50463274       0.81405930       0.63016527       0.00000000
H       12.32293623      10.35051119      12.49678448       0.23792794      -0.05833710       0.22326763      -0.13070006       0.06080142      -0.95998537       0.00000000
H        9.92957713      10.81588371      12.90716371      -0.11467093      -0.13259856       0.42139087       1.10674682       0.94915685      -1.23774855       0.00000000
9
Lattice="23.296006118037088 0.0 0.0 0.0 22.649327160371357 0.0 0.0 0.0 22.71683509278982" Properties=species:S:1:pos:R:3:momenta:R:3:forces:R:3:magmoms:R:1 Energy:=T 4.1390592=T energy=-37.36326959839482 dipole="0.010339290708768724 -0.2638322656078739 0.09573616949174953" magmom=0.0 free_energy=-37.36326959839482 pbc="T T T"
C       12.40534899      11.84204448      10.79708819      -0.35586276       0.68786957      -0.38513412       1.08304353       2.54752273      -2.54202566       0.00000000
C       11.60317106      10.86157710      11.56642901      -0.38136203       0.19031815      -0.56986217      -0.54209349      -4.44906505       1.71727611       0.00000000
O       10.49478234      11.57472778      12.18993195      -1.01626089       2.00208054       0.34445823      -3.02732669       0.54190003       1.84518108       0.00000000
H       11.74824758      12.32900223       9.83196697      -0.04394403       0.07323202      -0.25752993       0.51344448      -0.21600726       0.94779048       0.00000000
H       13.34236023      11.24438039      10.26741324       0.39187710      -0.37711333      -0.25665256       0.63735304      -0.31524778      -0.32702042       0.00000000
H       12.90093989      12.73313578      11.50286403       0.25383632       0.31112895       0.18676156      -0.19696822       0.04988199      -0.08701732       0.00000000
H       11.25838746       9.86028432      10.78731851       0.08803760      -0.23947898      -0.25894450       0.50463274       0.81405930       0.63016527       0.00000000
H       12.33401344      10.34795679      12.50605471       0.21033172      -0.04254056       0.14932616      -0.13070006       0.06080142      -0.95998537       0.00000000
H        9.92555710      10.81084866      12.92588090      -0.04753810      -0.07042970       0.34271835       1.10674682       0.94915685      -1.23774855       0.00000000
9
Lattice="23.296006118037088 0.0 0.0 0.0 22.649327160371357 0.0 0.0 0.0 22.71683509278982" Properties=species:S:1:pos:R:3:momenta:R:3:forces:R:3:magmoms:R:1 Energy:=T 4.1390592=T energy=-37.36326959839482 dipole="0.010339290708768724 -0.2638322656078739 0.09573616949174953" magmom=0.0 free_energy=-37.36326959839482 pbc="T T T"
C       12.40413329      11.84514528      10.79519061      -0.22857145       0.83138389      -0.54859217       1.08304353       2.54752273      -2.54202566       0.00000000
C       11.60156110      10.86183638      11.56430307      -0.40585822      -0.06910797      -0.46729037      -0.54209349      -4.44906505       1.71727611       0.00000000
O       10.49142240      11.58085222      12.19116095      -1.17232250       1.97961169       0.45880524      -3.02732669       0.54190003       1.84518108       0.00000000
H       11.74727443      12.33196460       9.82132020       0.00880796       0.04530897      -0.17270744       0.51344448      -0.21600726       0.94779048       0.00000000
H       13.36148438      11.22613943      10.25493768       0.39631163      -0.37325251      -0.25721702       0.63735304      -0.31524778      -0.32702042       0.00000000
H       12.91269935      12.74780436      11.51147814       0.22820424       0.29137495       0.16791502      -0.19696822       0.04988199      -0.08701732       0.00000000
H       11.26339164       9.85010106      10.77587044       0.11778653      -0.17539988      -0.20838482       0.50463274       0.81405930       0.63016527       0.00000000
H       12.34343250      10.34636572      12.51133592       0.17029719      -0.01905378       0.06004637      -0.13070006       0.06080142      -0.95998537       0.00000000
H        9.92494467      10.80902052      12.94056071       0.02361571      -0.00289723       0.25765802       1.10674682       0.94915685      -1.23774855       0.00000000
9
Lattice="23.296006118037088 0.0 0.0 0.0 22.649327160371357 0.0 0.0 0.0 22.71683509278982" Properties=species:S:1:pos:R:3:momenta:R:3:forces:R:3:magmoms:R:1 Energy:=T 4.1390592=T energy=-37.36326959839482 dipole="0.010339290708768724 -0.2638322656078739 0.09573616949174953" magmom=0.0 free_energy=-37.36326959839482 pbc="T T T"
C       12.40704357      11.83951983      10.79834027      -0.45877501       0.55020091      -0.23448633       1.08304353       2.54752273      -2.54202566       0.00000000
C       11.60467991      10.86027995      11.56896345      -0.35620575       0.43669908      -0.66628045      -0.54209349      -4.44906505       1.71727611       0.00000000
O       10.49766180      11.56856031      12.18904612      -0.86070718       2.00682324       0.23669052      -3.02732669       0.54190003       1.84518108       0.00000000
H       11.75155666      12.32482834       9.84641581      -0.08678237       0.09485936      -0.32834906       0.51344448      -0.21600726       0.94779048       0.00000000
H       13.32329699      11.26288813      10.27994780       0.38601936      -0.37907991      -0.25506409       0.63735304      -0.31524778      -0.32702042       0.00000000
H       12.88796367      12.71748566      11.49327872       0.27587639       0.32721986       0.20406285      -0.19696822       0.04988199      -0.08701732       0.00000000
H       11.25481261       9.87343766      10.80110390       0.05948915      -0.29597263      -0.30323433       0.50463274       0.81405930       0.63016527       0.00000000
H       12.32293623      10.35051119      12.49678448       0.23792794      -0.05833710       0.22326763      -0.13070006       0.06080142      -0.95998537       0.00000000
H        9.92957713      10.81588371      12.90716371      -0.11467093      -0.13259856       0.42139087       1.10674682       0.94915685      -1.23774855       0.00000000
9
Lattice="23.296006118037088 0.0 0.0 0.0 22.649327160371357 0.0 0.0 0.0 22.71683509278982" Properties=species:S:1:pos:R:3:momenta:R:3:forces:R:3:magmoms:R:1 Energy:=T 4.1390592=T energy=-37.36326959839482 dipole="0.010339290708768724 -0.2638322656078739 0.09573616949174953" magmom=0.0 free_energy=-37.36326959839482 pbc="T T T"
C       12.40534899      11.84204448      10.79708819      -0.35586276       0.68786957      -0.38513412       1.08304353       2.54752273      -2.54202566       0.00000000
C       11.60317106      10.86157710      11.56642901      -0.38136203       0.19031815      -0.56986217      -0.54209349      -4.44906505       1.71727611       0.00000000
O       10.49478234      11.57472778      12.18993195      -1.01626089       2.00208054       0.34445823      -3.02732669       0.54190003       1.84518108       0.00000000
H       11.74824758      12.32900223       9.83196697      -0.04394403       0.07323202      -0.25752993       0.51344448      -0.21600726       0.94779048       0.00000000
H       13.34236023      11.24438039      10.26741324       0.39187710      -0.37711333      -0.25665256       0.63735304      -0.31524778      -0.32702042       0.00000000
H       12.90093989      12.73313578      11.50286403       0.25383632       0.31112895       0.18676156      -0.19696822       0.04988199      -0.08701732       0.00000000
H       11.25838746       9.86028432      10.78731851       0.08803760      -0.23947898      -0.25894450       0.50463274       0.81405930       0.63016527       0.00000000
H       12.33401344      10.34795679      12.50605471       0.21033172      -0.04254056       0.14932616      -0.13070006       0.06080142      -0.95998537       0.00000000
H        9.92555710      10.81084866      12.92588090      -0.04753810      -0.07042970       0.34271835       1.10674682       0.94915685      -1.23774855       0.00000000
9
Lattice="23.296006118037088 0.0 0.0 0.0 22.649327160371357 0.0 0.0 0.0 22.71683509278982" Properties=species:S:1:pos:R:3:momenta:R:3:forces:R:3:magmoms:R:1 Energy:=T 4.1390592=T energy=-37.36326959839482 dipole="0.010339290708768724 -0.2638322656078739 0.09573616949174953" magmom=0.0 free_energy=-37.36326959839482 pbc="T T T"
C       12.40413329      11.84514528      10.79519061      -0.22857145       0.83138389      -0.54859217       1.08304353       2.54752273      -2.54202566       0.00000000
C       11.60156110      10.86183638      11.56430307      -0.40585822      -0.06910797      -0.46729037      -0.54209349      -4.44906505       1.71727611       0.00000000
O       10.49142240      11.58085222      12.19116095      -1.17232250       1.97961169       0.45880524      -3.02732669       0.54190003       1.84518108       0.00000000
H       11.74727443      12.33196460       9.82132020       0.00880796       0.04530897      -0.17270744       0.51344448      -0.21600726       0.94779048       0.00000000
H       13.36148438      11.22613943      10.25493768       0.39631163      -0.37325251      -0.25721702       0.63735304      -0.31524778      -0.32702042       0.00000000
H       12.91269935      12.74780436      11.51147814       0.22820424       0.29137495       0.16791502      -0.19696822       0.04988199      -0.08701732       0.00000000
H       11.26339164       9.85010106      10.77587044       0.11778653      -0.17539988      -0.20838482       0.50463274       0.81405930       0.63016527       0.00000000
H       12.34343250      10.34636572      12.51133592       0.17029719      -0.01905378       0.06004637      -0.13070006       0.06080142      -0.95998537       0.00000000
H        9.92494467      10.80902052      12.94056071       0.02361571      -0.00289723       0.25765802       1.10674682       0.94915685      -1.23774855       0.00000000
9
Lattice="23.296006118037088 0.0 0.0 0.0 22.649327160371357 0.0 0.0 0.0 22.71683509278982" Properties=species:S:1:pos:R:3:momenta:R:3:forces:R:3:magmoms:R:1 Energy:=T 4.1390592=T energy=-37.36326959839482 dipole="0.010339290708768724 -0.2638322656078739 0.09573616949174953" magmom=0.0 free_energy=-37.36326959839482 pbc="T T T"
C       12.40347971      11.84884360      10.79260176      -0.09110141       0.97750950      -0.71764702       1.08304353       2.54752273      -2.54202566       0.00000000
C       11.59985192      10.86101193      11.56260747      -0.43012295      -0.33414222      -0.36204768      -0.54209349      -4.44906505       1.71727611       0.00000000
O       10.48758479      11.58688174      12.19274881      -1.32792496       1.94869043       0.57570857      -3.02732669       0.54190003       1.84518108       0.00000000
H       11.74910589      12.33341747       9.81513708       0.06636952       0.01432816      -0.08109582       0.51344448      -0.21600726       0.94779048       0.00000000
H       13.38097976      11.20800791      10.24234811       0.40393062      -0.37100607      -0.25955712       0.63735304      -0.31524778      -0.32702042       0.00000000
H       12.92317779      12.76152951      11.51922690       0.20191259       0.27201203       0.15015461      -0.19696822       0.04988199      -0.08701732       0.00000000
H       11.26986545       9.84319206      10.76701196       0.14794907      -0.10819951      -0.15523623       0.50463274       0.81405930       0.63016527       0.00000000