9
Lattice="23.296006118037088 0.0 0.0 0.0 22.649327160371357 0.0 0.0 0.0 22.71683509278982" Properties=species:S:1:pos:R:3:momenta:R:3:forces:R:3:magmoms:R:1 Energy:=T 4.1390592=T energy=-36.951561123688556 dipole="-0.005868990090078306 -0.3037558600653639 0.09077807041643997" magmom=0.0 free_energy=-36.951561123688556 pbc="T T T"
C       12.41929290      11.83099836      10.79873498      -0.65812025      -0.69357469       1.00457355       0.86018809      -1.43959741       0.20973820       0.00000000
C       11.61002826      10.82378211      11.59841980      -0.62908185      -0.29689462      -0.14160594      -0.52025856      -0.01353661      -0.35453944       0.00000000
O       10.50792359      11.52863246      12.18586788       0.14094754       0.79092276      -0.83052779      -0.06997902       4.49286362      -1.22109880       0.00000000
H       11.80200606      12.27360013      10.00347993       0.15813706      -0.35714278       0.01689429      -1.81196545       1.37034615      -2.22046739       0.00000000
H       13.31491137      11.33371815      10.29899575       0.41927741      -0.18681979      -0.27768308       1.27329553      -0.73643949      -0.67441867       0.00000000
H       12.79759781      12.63625922      11.46668015       0.08115783      -0.22032115       0.30267458       0.84068485       1.94993359       1.53749211       0.00000000
H       11.23675466       9.97457907      10.91765502      -0.38840814      -0.55829105      -0.19501266      -0.19240421      -1.48857199      -1.29205960       0.00000000
H       12.25753696      10.35032150      12.39334551      -0.00200867      -0.05965786       0.19649882       1.80757598      -1.24477810       1.57521538       0.00000000
H       10.00810624      10.86459363      12.72111226       0.11068227      -0.16171797       0.14666461      -2.26778348      -2.89999102       2.39773373       0.00000000
9
Lattice="23.296006118037088 0.0 0.0 0.0 22.649327160371357 0.0 0.0 0.0 22.71683509278982" Properties=species:S:1:pos:R:3:momenta:R:3:forces:R:3:magmoms:R:1 Energy:=T 4.1390592=T energy=-37.09774750507776 dipole="-0.0010022927485398125 -0.3016903500292964 0.09345419113566343" magmom=0.0 free_energy=-37.09774750507776 pbc="T T T"
C       12.41668819      11.82801775      10.80286378      -0.58975583      -0.77164386       1.00934199       1.92374951      -1.73953720      -0.01555766       0.00000000
C       11.60740367      10.82256674      11.59780517      -0.65528838      -0.32290361      -0.16389178      -0.54692449      -1.04560209      -0.55298470       0.00000000
O       10.50835099      11.53139911      12.18322628       0.12465852       0.99832296      -0.87846814      -0.59334284       3.95289221      -0.73112897       0.00000000
H       11.80754308      12.25783843      10.00164630       0.06595201      -0.28624156      -0.09641435      -1.94199611       1.51689501      -2.39368959       0.00000000
H       13.33686360      11.32373446      10.28465907       0.46281491      -0.21294728      -0.29899493       0.49963946      -0.32752496      -0.19344285       0.00000000
H       12.80255800      12.62785744      11.48326717       0.12011954      -0.12793574       0.37399764       0.74591486       1.81218707       1.36692718       0.00000000
H       11.21759977       9.94559601      10.90660734      -0.38970330      -0.61338954      -0.24449346       0.13966263      -0.75514995      -0.72289866       0.00000000
H       12.25960184      10.34592538      12.40480439       0.08030112      -0.11680155       0.26618924       1.54424519      -1.08222854       1.26271954       0.00000000
H       10.01078570      10.85324431      12.73112717       0.00969079      -0.29010766       0.25396956      -1.84479405      -2.32829669       1.97194079       0.00000000
9
Lattice="23.296006118037088 0.0 0.0 0.0 22.649327160371357 0.0 0.0 0.0 22.71683509278982" Properties=species:S:1:pos:R:3:momenta:R:3:forces:R:3:magmoms:R:1 Energy:=T 4.1390592=T energy=-37.2413382947046 dipole="0.0029784317087558593 -0.2969680501238431 0.09589209442083173" magmom=0.0 free_energy=-37.2413382947046 pbc="T T T"
C       12.41446983      11.82468780      10.80698946      -0.47492430      -0.85533195       1.00063480       2.75242289      -1.66841103      -0.33901692       0.00000000
C       11.60466925      10.82114138      11.59707948      -0.68024686      -0.39938562      -0.19156167      -0.46943520      -2.06890010      -0.57378946       0.00000000
O       10.50868894      11.53476173      12.18047446       0.07886623       1.17349165      -0.89773999      -1.27141175       3.18033104      -0.05365985       0.00000000
H       11.80843291      12.24570664       9.99408460      -0.02726020      -0.21172660      -0.21147129      -1.85379377       1.51750509      -2.29166153       0.00000000
H       13.36001146      11.31296700      10.26985949       0.47061262      -0.22048781      -0.29807036      -0.18210076       0.02045956       0.23109287       0.00000000
H       12.80930314      12.62379222      11.50312523       0.15262867      -0.04579156       0.43353398       0.57792274       1.53288989       1.05751284       0.00000000
H       11.19877910       9.91480588      10.89382978      -0.37553689      -0.63461037      -0.26754631       0.43722256      -0.10900545      -0.21586027       0.00000000
H       12.26536209      10.33893950      12.41928495       0.14753402      -0.16459282       0.31787532       1.19361457      -0.86392848       0.84204189       0.00000000
H       10.00905058      10.83632340      12.74586092      -0.06673183      -0.38473476       0.33545071      -1.26728959      -1.52511043       1.34613651       0.00000000
9
Lattice="23.296006118037088 0.0 0.0 0.0 22.649327160371357 0.0 0.0 0.0 22.71683509278982" Properties=species:S:1:pos:R:3:momenta:R:3:forces:R:3:magmoms:R:1 Energy:=T 4.1390592=T energy=-37.334764164879154 dipole="0.00596855425094378 -0.2903827744235618 0.0979659429721794" magmom=0.0 free_energy=-37.334764164879154 pbc="T T T"
C       12.41280422      11.82102278      10.81104706      -0.32616651      -0.92845245       0.97345230       3.30529502      -1.30920359      -0.76790928       0.00000000
C       11.60184056      10.81930053      11.59623856      -0.69969864      -0.52363143      -0.21686165      -0.32268074      -2.99064058      -0.45647675       0.00000000
O       10.50883520      11.53860385      12.17771455      -0.00034823       1.30897265      -0.88290687      -1.95436106       2.33672963       0.65769449       0.00000000
H       11.80488664      12.23720623       9.98103898      -0.11125630      -0.14033219      -0.31500114      -1.56669735       1.38981934      -1.92428345       0.00000000
H       13.38272356      11.30224850      10.25561290       0.44824226      -0.21294093      -0.27828664      -0.72886579       0.28686448       0.57454035       0.00000000
H       12.81743126      12.62339518      11.52551391       0.17584330       0.02011743       0.47549294       0.36742383       1.15105754       0.65114101       0.00000000
H       11.18100469       9.88375490      10.88053566      -0.34784404      -0.62646686      -0.26803041       0.69048615       0.44062584       0.19614676       0.00000000
H       12.27397864      10.32988624      12.43578050       0.19675870      -0.20120574       0.34788549       0.81091363      -0.62702367       0.38003302       0.00000000
H       10.00428286      10.81575292      12.76381596      -0.11411501      -0.43810697       0.38484815      -0.66224950      -0.64831382       0.66542720       0.00000000
9
Lattice="23.296006118037088 0.0 0.0 0.0 22.649327160371357 0.0 0.0 0.0 22.71683509278982" Properties=species:S:1:pos:R:3:momenta:R:3:forces:R:3:magmoms:R:1 Energy:=T 4.1390592=T energy=-37.35253527551553 dipole="0.008029195191803597 -0.28303078282500366 0.09959686911754215" magmom=0.0 free_energy=-37.35253527551553 pbc="T T T"
C       12.41180241      11.81709484      10.81495043      -0.15631181      -0.97986661       0.92359169       3.61153208      -0.78448507      -1.26251564       0.00000000
C       11.59894706      10.81685908      11.59530597      -0.71124098      -0.68931456      -0.23441512      -0.14734642      -3.75631160      -0.25833611       0.00000000
O       10.50868680      11.54279826      12.17505379      -0.11058316       1.40389820      -0.83474953      -2.53462827       1.52883077       1.30336981       0.00000000
H       11.79759128      12.23203164       9.96338857      -0.17798485      -0.07762812      -0.39590125      -1.15062414       1.16361760      -1.37013252       0.00000000
H       13.40369149      11.29221647      10.24274118       0.40194289      -0.19401173      -0.24332460      -1.15653817       0.48397075       0.84918465       0.00000000
H       12.82643861      12.62575261      11.54946077       0.18832299       0.06623210       0.49710111       0.14077452       0.72682541       0.22878756       0.00000000
H       11.16488261       9.85375833      10.86771092      -0.30938495      -0.59413756      -0.25054832       0.87564556       0.87588848       0.51575947       0.00000000
H       12.28453571      10.31933253      12.45318547       0.22725933      -0.22592473       0.35560153       0.43113382      -0.37958384      -0.06582008       0.00000000
H        9.99793037      10.79363103      12.78336336      -0.13366799      -0.45066754       0.40220040      -0.13398717       0.13682193       0.04119170       0.00000000
9
Lattice="23.296006118037088 0.0 0.0 0.0 22.649327160371357 0.0 0.0 0.0 22.71683509278982" Properties=species:S:1:pos:R:3:momenta:R:3:forces:R:3:magmoms:R:1 Energy:=T 4.1390592=T energy=-37.29194392218693 dipole="0.009356511319063008 -0.27599577170545164 0.10076677232096387" magmom=0.0 free_energy=-37.29194392218693 pbc="T T T"
C       12.41152589      11.81300935      10.81860026       0.02385743      -1.00416366       0.84944939       3.72532345      -0.20493994      -1.75670855       0.00000000
C       11.59602397      10.81366326      11.59432149      -0.71415962      -0.88811795      -0.24160611       0.02849341      -4.33936438      -0.03449570       0.00000000
O       10.50815626      11.54722317      12.17258955      -0.24535892       1.46140051      -0.75766753      -2.95371336       0.81277946       1.83556489       0.00000000
H       11.78754249      12.22964158       9.94245945      -0.22297290      -0.02713920      -0.44764821      -0.68138015       0.89239308      -0.73710851       0.00000000
H       13.42189184      11.28334257      10.23190156       0.33730837      -0.16646228      -0.19654016      -1.47551012       0.63789843       1.05597258       0.00000000
H       12.83578284      12.62984932      11.57395511       0.18974474       0.09198551       0.49813033      -0.08287786       0.32190538      -0.18687586       0.00000000
H       11.15085594       9.82585775      10.85612038      -0.26311698      -0.54280931      -0.21929646       1.00847987       1.21430161       0.75687935       0.00000000
H       12.29612447      10.30787047      12.47043294       0.23976484      -0.23908975       0.34278957       0.07811598      -0.15652231      -0.45590898       0.00000000
H        9.99125726      10.77183655      12.80300933      -0.13002595      -0.42779176       0.39124930       0.28229844       0.79472637      -0.48714280       0.00000000
9
Lattice="23.296006118037088 0.0 0.0 0.0 22.649327160371357 0.0 0.0 0.0 22.71683509278982" Properties=species:S:1:pos:R:3:momenta:R:3:forces:R:3:magmoms:R:1 Energy:=T 4.1390592=T energy=-37.29194392218693 dipole="0.009356511319063008 -0.27599577170545164 0.10076677232096387" magmom=0.0 free_energy=-37.29194392218693 pbc="T T T"
C       12.41199526      11.80893830      10.82185300       0.20305055      -0.97528353       0.73267658       3.72532345      -0.20493994      -1.75670855       0.00000000
C       11.59312242      10.80955555      11.59335142      -0.70185758      -1.12699996      -0.22841223       0.02849341      -4.33936438      -0.03449570       0.00000000
O       10.50716233      11.55172427      12.17043291      -0.40392500       1.45785011      -0.63986365      -2.95371336       0.81277946       1.83556489       0.00000000
H       11.77638827      12.22906820       9.92048356      -0.22646102      -0.00172386      -0.44278618      -0.68138015       0.89239308      -0.73710851       0.00000000
H       13.43627856      11.27613029      10.22377398       0.24885998      -0.12757820      -0.13420773      -1.47551012       0.63789843       1.05597258       0.00000000
H       12.84470510      12.63429543      11.59760184       0.17300843       0.08423215       0.46632733      -0.08287786       0.32190538      -0.18687586       0.00000000
H       11.13935857       9.80117106      10.84655969      -0.20700707      -0.46566487      -0.16969404       1.00847987       1.21430161       0.75687935       0.00000000
H       12.30754307      10.29626353      12.48621438       0.22322681      -0.23373016       0.29947344       0.07811598      -0.15652231      -0.45590898       0.00000000
H        9.98562732      10.75254429      12.82100174      -0.09580308      -0.35497467       0.33985178       0.28229844       0.79472637      -0.48714280       0.00000000
9
Lattice="23.296006118037088 0.0 0.0 0.0 22.649327160371357 0.0 0.0 0.0 22.71683509278982" Properties=species:S:1:pos:R:3:momenta:R:3:forces:R:3:magmoms:R:1 Energy:=T 4.1390592=T energy=-37.29194392218693 dipole="0.009356511319063008 -0.27599577170545164 0.10076677232096387" magmom=0.0 free_energy=-37.29194392218693 pbc="T T T"
C       12.41318646      11.80503340      10.82459215       0.37581755      -0.92533183       0.60048018       3.72532345      -0.20493994      -1.75670855       0.00000000
C       11.59028412      10.80444656      11.59245352      -0.68401286      -1.37472525      -0.20724358       0.02849341      -4.33936438      -0.03449570       0.00000000
O       10.50567634      11.55617374      12.16866106      -0.56241374       1.42834365      -0.50852906      -2.95371336       0.81277946       1.83556489       0.00000000
H       11.76547446      12.22947359       9.89931110      -0.21650444       0.01495264      -0.41921651      -0.68138015       0.89239308      -0.73710851       0.00000000
H       13.44614259      11.27091041      10.21882337       0.15282826      -0.08514397      -0.06689865      -1.47551012       0.63789843       1.05597258       0.00000000
H       12.85264205      12.63805752      11.61939748       0.15086932       0.06647018       0.42526052      -0.08287786       0.32190538      -0.18687586       0.00000000
H       11.13068365       9.78047994      10.83958414      -0.14763643      -0.37988724      -0.11393052       1.00847987       1.21430161       0.75687935       0.00000000
H       12.31787733      10.28509409      12.49961584       0.19703818      -0.22224962       0.24725857       0.07811598      -0.15652231      -0.45590898       0.00000000
H        9.98192150      10.73724521      12.83612700      -0.05269066      -0.26651891       0.27568990       0.28229844       0.79472637      -0.48714280       0.00000000
9
Lattice="23.296006118037088 0.0 0.0 0.0 22.649327160371357 0.0 0.0 0.0 22.71683509278982" Properties=species:S:1:pos:R:3:momenta:R:3:forces:R:3:magmoms:R:1 Energy:=T 4.1390592=T energy=-37.29194392218693 dipole="0.009356511319063008 -0.27599577170545164 0.10076677232096387" magmom=0.0 free_energy=-37.29194392218693 pbc="T T T"
C       12.41506873      11.80137086      10.82676378       0.54074428      -0.85929599       0.45723522       3.72532345      -0.20493994      -1.75670855       0.00000000
C       11.58752851      10.79831293      11.59165656      -0.66216634      -1.62586917      -0.17999622       0.02849341      -4.33936438      -0.03449570       0.00000000
O       10.50370935      11.56049368      12.16731076      -0.71453533       1.37237121      -0.36557011      -2.95371336       0.81277946       1.83556489       0.00000000
H       11.75529049      12.23052529       9.87963202      -0.20020528       0.02701356      -0.38651266      -0.68138015       0.89239308      -0.73710851       0.00000000
H       13.45117128      11.26783323      10.21725488       0.05122955      -0.04004400       0.00406945      -1.47551012       0.63789843       1.05597258       0.00000000
H       12.85940692      12.64077277      11.63904236       0.12630362       0.04415104       0.38053898      -0.08287786       0.32190538      -0.18687586       0.00000000
H       11.12497178       9.76415204      10.83545746      -0.08566250      -0.28737323      -0.05332124       1.00847987       1.21430161       0.75687935       0.00000000
H       12.32674392      10.27460589      12.51030908       0.16469841      -0.20688194       0.19029809       0.07811598      -0.15652231      -0.45590898       0.00000000
H        9.98049275      10.72657273      12.84786700      -0.00342521      -0.16682304       0.20235761       0.28229844       0.79472637      -0.48714280       0.00000000
9
Lattice="23.296006118037088 0.0 0.0 0.0 22.649327160371357 0.0 0.0 0.0 22.71683509278982" Properties=species:S:1:pos:R:3:momenta:R:3:forces:R:3:magmoms:R:1 Energy:=T 4.1390592=T energy=-36.84963773712917 dipole="0.01333477705129837 -0.2662274752564804 0.10115734739029626" magmom=0.0 free_energy=-36.84963773712917 pbc="T T T"
C       12.41760871      11.79800601      10.82833146       0.69908320      -0.78988987       0.31371127       3.17287225       1.34407902      -2.83730028       0.00000000
C       11.58486887      10.79115007      11.59098149      -0.63809858      -1.86956580      -0.15158374       0.50220703      -4.79885117       0.55007316       0.00000000
O       10.50128940      11.56459951      12.16641662      -0.86613985       1.31744175      -0.22772799      -3.16923561      -0.81671653       2.58766026       0.00000000
H       11.74596498      12.23210599       9.86164646      -0.17423432       0.03431742      -0.33811740       0.69885027       0.07636691       1.26304994       0.00000000
H       13.45113477      11.26700823      10.21921992      -0.04374910       0.00214815       0.07133037      -1.75104302       0.77699613       1.26238035       0.00000000
H       12.86495001      12.64235992      11.65648000       0.09702101       0.01528134       0.32573169      -0.68187983      -0.70421462      -1.30948683       0.00000000
H       11.12233606       9.75247617      10.83438813      -0.02591462      -0.19621813       0.00606411       1.14757633       1.76799978       1.14066277       0.00000000
H       12.33392676      10.26493398      12.51815988       0.12825921      -0.18972191       0.12887600      -0.78026091       0.35767308      -1.31341299       0.00000000
H        9.98158773      10.72098874      12.85584621       0.04331719      -0.06606512       0.12990472       0.84880975       1.97664887      -1.37884145       0.00000000
9
Lattice="23.296006118037088 0.0 0.0 0.0 22.649327160371357 0.0 0.0 0.0 22.71683509278982" Properties=species:S:1:pos:R:3:momenta:R:3:forces:R:3:magmoms:R:1 Energy:=T 4.1390592=T energy=-36.82567016545287 dipole="0.014920504521110382 -0.2690244087342872 0.10022844841628643" magmom=0.0 free_energy=-36.82567016545287 pbc="T T T"
C       12.42078589      11.79491108      10.82932934       0.84684927      -0.72051829       0.17449404       2.84446073       1.48087197      -2.83190698       0.00000000
C       11.58231009      10.78302347      11.59041690      -0.61197685      -2.09861056      -0.12319016       0.56152255      -4.52831447       0.60617072       0.00000000
O       10.49839163      11.56858220      12.16591261      -1.01765674       1.27222759      -0.10188986      -3.00083851      -1.02449534       2.53672284       0.00000000
H       11.73831181      12.23386943       9.84668337      -0.13520143       0.03515545      -0.26916243       0.89064777      -0.04224069       1.54493576       0.00000000
H       13.44690804      11.26804256      10.22420583      -0.12669285       0.03887091       0.13164591      -1.62659398       0.71842887       1.19379065       0.00000000
H       12.86886136      12.64226190      11.67078406       0.06178996      -0.02224484       0.25807823      -0.75279994      -0.82392721      -1.44549890       0.00000000
H       11.12244647       9.74503110      10.83604839       0.02957573      -0.10931333       0.06207054       1.11210291       1.77093917       1.14003243       0.00000000
H       12.33924244      10.25611799      12.52286771       0.08737059      -0.17070232       0.06258527      -0.88480625       0.41684303      -1.38607954       0.00000000
H        9.98471390      10.72013485      12.86052587       0.08408059       0.03219443       0.06181055       0.81115844       2.02467877      -1.39409078       0.00000000
9
Lattice="23.296006118037088 0.0 0.0 0.0 22.649327160371357 0.0 0.0 0.0 22.71683509278982" Properties=species:S:1:pos:R:3:momenta:R:3:forces:R:3:magmoms:R:1 Energy:=T 4.1390592=T energy=-36.85996382253653 dipole="0.01691799694313646 -0.2734962126596464 0.09905504616292618" magmom=0.0 free_energy=-36.85996382253653 pbc="T T T"
C       12.42453431      11.79211355      10.82975849       0.97639364      -0.64629330       0.03803785       2.43084801       1.54171994      -2.72486488       0.00000000
C       11.57986407      10.77398746      11.58997403      -0.58302538      -2.31120549      -0.09290059       0.61744003      -4.12898142       0.62728190       0.00000000
O       10.49504143      11.57241044      12.16579106      -1.15872726       1.21740336       0.01988439      -2.74383877      -1.20805803       2.42217099       0.00000000
H       11.73278995      12.23553180       9.83541729      -0.08798244       0.03093528      -0.18829536       1.03220486      -0.12961314       1.74813485       0.00000000
H       13.43878889      11.27079609      10.23204847      -0.20175513       0.07189464       0.18747534      -1.43009391       0.62636437       1.07969656       0.00000000
H       12.87097128      12.64019222      11.68162905       0.02379864      -0.06446357       0.18493439      -0.79428327      -0.89530485      -1.53306591       0.00000000
H       11.12521814       9.74182387      10.84043674       0.08272641      -0.02352963       0.11705633       1.05230021       1.72234680       1.09910005       0.00000000
H       12.34244079      10.24829949      12.52425865       0.04233278      -0.14939111      -0.00599891      -0.94922450       0.45099265      -1.40680685       0.00000000
H        9.98978116      10.72412600      12.86186949       0.12185989       0.13101456      -0.00546094       0.72729100       1.99947707      -1.34534033       0.00000000
9
Lattice="23.296006118037088 0.0 0.0 0.0 22.649327160371357 0.0 0.0 0.0 22.71683509278982" Properties=species:S:1:pos:R:3:momenta:R:3:forces:R:3:magmoms:R:1 Energy:=T 4.1390592=T energy=-36.94853344594322 dipole="0.01927443432877024 -0.2793219476221181 0.09780286190996791" magmom=0.0 free_energy=-36.94853344594322 pbc="T T T"
C       12.42877092      11.78962564      10.82964041       1.08327072      -0.57040151      -0.09069523       1.92140307       1.54874714      -2.51740671       0.00000000
C       11.57754206      10.76412224      11.58965715      -0.55100187      -2.50026301      -0.06188188       0.68662198      -3.56982313       0.63586271       0.00000000
O       10.49127754      11.57605654      12.16603469      -1.28540864       1.15449920       0.13422934      -2.41488296      -1.35352671       2.23418676       0.00000000
H       11.72973815      12.23688400       9.82833448      -0.03511922       0.02306320      -0.09922087       1.12049238      -0.19095392       1.87915854       0.00000000
H       13.42724754      11.27504851      10.24247481      -0.26506070       0.09939905       0.23625453      -1.14783730       0.49367085       0.90669082       0.00000000
H       12.87118048      12.63598009      11.68880543      -0.01560151      -0.10898799       0.10865842      -0.81017045      -0.91781981      -1.57304608       0.00000000
H       11.13050794       9.74273820      10.84745522       0.13233740       0.05836013       0.16902762       0.96795948       1.61236962       1.01727611       0.00000000
H       12.34336766      10.24156022      12.52228313      -0.00507417      -0.12721835      -0.07446621      -0.98128255       0.45192680      -1.38132010       0.00000000
H        9.99658882      10.73290188      12.85999372       0.15442189       0.22685806      -0.06869952       0.59869972       1.90346406      -1.22986258       0.00000000
9
Lattice="23.296006118037088 0.0 0.0 0.0 22.649327160371357 0.0 0.0 0.0 22.71683509278982" Properties=species:S:1:pos:R:3:momenta:R:3:forces:R:3:magmoms:R:1 Energy:=T 4.1390592=T energy=-37.0775424222571 dipole="0.021862422156277265 -0.28612516736624644 0.09670277743976229" magmom=0.0 free_energy=-37.0775424222571 pbc="T T T"
C       12.43339339      11.78744876      10.82901677       1.16257151      -0.49503838      -0.20700291       1.30788539       1.52019181      -2.21887724       0.00000000
C       11.57535794      10.75354010      11.58946796      -0.51543058      -2.65969476      -0.03058009       0.76191288      -2.92256022       0.63880955       0.00000000
O       10.48714957      11.57949856      12.16661517      -1.39433998       1.08610850       0.23742757      -2.02102159      -1.43148110       1.96825374       0.00000000
H       11.72936768      12.23777924       9.82574847       0.02115672       0.01276146      -0.00527573       1.17117793      -0.22855361       1.94647782       0.00000000
H       13.41295942      11.28048227      10.25507086      -0.31182577       0.11912043       0.27486961      -0.75653071       0.30942338       0.66579331       0.00000000
H       12.86945095      12.62957163      11.69221752      -0.05507885      -0.15351432       0.03170028      -0.79742659      -0.89538239      -1.56084503       0.00000000
H       11.13811407       9.74751092      10.85690804       0.17702295       0.13321263       0.21582376       0.85172649       1.43577588       0.88835737       0.00000000
H       12.34194633      10.23590240      12.51700212      -0.05318934      -0.10559172      -0.14056290      -0.97806439       0.42875340      -1.31027100       0.00000000
H       10.00482917      10.74623272      12.85517490       0.17942181       0.31594881      -0.12441570       0.41934749       1.72449122      -1.03901307       0.00000000
9
Lattice="23.296006118037088 0.0 0.0 0.0 22.649327160371357 0.0 0.0 0.0 22.71683509278982" Properties=species:S:1:pos:R:3:momenta:R:3:forces:R:3:magmoms:R:1 Energy:=T 4.1390592=T energy=-37.2249119665633 dipole="0.02450279294096525 -0.29348486500955845 0.0960354771401022" magmom=0.0 free_energy=-37.2249119665633 pbc="T T T"
C       12.43827852      11.78557717      10.82794753       1.20946475      -0.42179140      -0.30679343       0.60170240       1.46257365      -1.84479460       0.00000000
C       11.57332682      10.74237104      11.58940706      -0.47633103      -2.78467173       0.00074306       0.83030010      -2.16675484       0.63673228       0.00000000
O       10.48271690      11.58272477      12.16749239      -1.48311981       1.01660112       0.32540112      -1.59427254      -1.39899980       1.61420701       0.00000000
H       11.73179982      12.23812757       9.82782037       0.07894738       0.00117904       0.09044400       1.18217477      -0.24310600       1.95142331       0.00000000
H       13.39686093      11.28665648      10.26926013      -0.33672845       0.12866921       0.30051396      -0.25755676       0.07942249       0.37849642       0.00000000
H       12.86581319      12.62102053      11.69189454      -0.09341043      -0.19599771      -0.04338920      -0.76351316      -0.83462687      -1.49695037       0.00000000
H       11.14775837       9.75571942      10.86848668       0.21499276       0.19749017       0.25496265       0.69448127       1.18173558       0.70545745       0.00000000
H       12.33818450      10.23127058      12.50858564      -0.10017208      -0.08558438      -0.20190428      -0.93516772       0.38598599      -1.18767387       0.00000000
H       10.01407300      10.76369026      12.84786974       0.19459690       0.39396185      -0.16892161       0.19861272       1.45235756      -0.77335754       0.00000000
9
Lattice="23.296006118037088 0.0 0.0 0.0 22.649327160371357 0.0 0.0 0.0 22.71683509278982" Properties=species:S:1:pos:R:3:momenta:R:3:forces:R:3:magmoms:R:1 Energy:=T 4.1390592=T energy=-37.362407907880225 dipole="0.027008096944121814 -0.30095746860917433 0.09609289481440404" magmom=0.0 free_energy=-37.362407907880225 pbc="T T T"
C       12.44328449      11.78399931      10.82650779       1.21984555      -0.35214200      -0.38684474      -0.17897548       1.37369064      -1.41505677       0.00000000
C       11.57146246      10.73076683      11.58947404      -0.43352069      -2.86866678       0.03288969       0.91302355      -1.25369321       0.67234350       0.00000000
O       10.47804386      11.58574006      12.16861299      -1.55005138       0.95190686       0.39371792      -1.13131675      -1.23548141       1.16779150       0.00000000
H       11.73706089      12.23789414       9.83456200       0.13623871      -0.01056385       0.18490827       1.15084381      -0.23508813       1.89535256       0.00000000
H       13.38014612      11.29302075      10.28435515      -0.33525324       0.12567355       0.31085984       0.31763026      -0.20141175       0.04280885       0.00000000
H       12.86034835      12.61047217      11.68798936      -0.12923537      -0.23419641      -0.11385983      -0.69535076      -0.72090148      -1.37275617       0.00000000
H       11.15906455       9.76675581      10.88175348       0.24406127       0.24696960       0.28317898       0.48924706       0.83316692       0.44356849       0.00000000