9
Lattice="23.296006118037088 0.0 0.0 0.0 22.649327160371357 0.0 0.0 0.0 22.71683509278982" Properties=species:S:1:pos:R:3:momenta:R:3:forces:R:3:magmoms:R:1 Energy:=T 4.1390592=T energy=-36.85216033926561 dipole="-0.011345417949741723 -0.30289076977286356 0.08798436017351492" magmom=0.0 free_energy=-36.85216033926561 pbc="T T T"
C       12.42207036      11.83368987      10.79464830      -0.35935267       0.71104864      -0.54546550      -0.30518862      -0.78019647       0.37406193       0.00000000
C       11.61254836      10.82499477      11.59896323      -1.31651273       0.43381537       0.36682049      -0.37445579       0.89943513       0.01835284       0.00000000
O       10.50748564      11.52654319      12.18832537      -0.39506370       0.61602993       0.07567809       0.15092820       4.64737456      -1.38093836       0.00000000
H       11.79213304      12.29264105      10.00000000       0.29836922      -0.10882693       0.00330846      -1.49683377       1.06915683      -1.83007284       0.00000000
H       13.29600612      11.34193956      10.31171856      -0.07244981      -0.16777411      -0.05855900       2.07942804      -1.15880629      -1.15712720       0.00000000
H       12.79464938      12.64932716      11.45377233       0.15596114      -0.10972269       0.05186768       0.84461095       1.90791225       1.55647578       0.00000000
H       11.25544912      10.00000000      10.92561081       0.08346095      -0.11631966      -0.17758351      -0.53026829      -2.19946677      -1.85986317       0.00000000
H       12.25979758      10.35173888      12.38565610      -0.25415134      -0.20550136       0.17413941       1.94214056      -1.31861207       1.73006543       0.00000000
H       10.00000000      10.86900330      12.71683509      -0.00980652      -0.11165328      -0.02564147      -2.38549544      -3.08283403       2.47946924       0.00000000
9
Lattice="23.296006118037088 0.0 0.0 0.0 22.649327160371357 0.0 0.0 0.0 22.71683509278982" Properties=species:S:1:pos:R:3:momenta:R:3:forces:R:3:magmoms:R:1 Energy:=T 4.1390592=T energy=-36.94489819250086 dipole="-0.010666091269822313 -0.3053577240698187 0.0878762876082842" magmom=0.0 free_energy=-36.94489819250086 pbc="T T T"
C       12.42057030      11.83651903      10.79245543      -0.36245268       0.66405387      -0.51698460       0.17895018      -1.13352556       0.78573786       0.00000000
C       11.60712748      10.82685897      11.60046502      -1.32869989       0.46740988       0.36314806      -0.12182992       0.46860115      -0.16790170       0.00000000
O       10.50628425      11.52878461      12.18845358      -0.39776146       0.83594925       0.01616411      -0.26078634       4.30818502      -1.04259149       0.00000000
H       11.80487973      12.28861785       9.99797153       0.21811160      -0.05113087      -0.09429245      -1.77141887       1.28034343      -2.14443337       0.00000000
H       13.29496412      11.33237848      10.30748085       0.02480077      -0.22203147      -0.11210647       1.88081245      -1.05066317      -1.02343379       0.00000000
H       12.80325895      12.64626387      11.45816183       0.19663618      -0.01801002       0.12588953       0.81175880       1.82681337       1.45784381       0.00000000
H       11.25888119       9.99170083      10.91473297       0.05980208      -0.21627802      -0.26260395      -0.43316871      -1.87103998      -1.60234106       0.00000000
H       12.24973815      10.34014839      12.39621083      -0.16278255      -0.26625478       0.25286278       1.77858154      -1.15539015       1.47570970       0.00000000
H        9.99666796      10.85987455      12.71855242      -0.12051689      -0.25369350       0.08892875      -2.12285472      -2.70133074       2.18606226       0.00000000
9
Lattice="23.296006118037088 0.0 0.0 0.0 22.649327160371357 0.0 0.0 0.0 22.71683509278982" Properties=species:S:1:pos:R:3:momenta:R:3:forces:R:3:magmoms:R:1 Energy:=T 4.1390592=T energy=-37.1238693911647 dipole="-0.010379001859226373 -0.305472333495619 0.08749741353332029" magmom=0.0 free_energy=-37.1238693911647 pbc="T T T"
C       12.41910619      11.83912055      10.79042035      -0.34030977       0.60502998      -0.47253719       0.72275393      -1.27004642       1.02425041       0.00000000
C       11.60168214      10.82881728      11.60193309      -1.32699285       0.47402926       0.35117404       0.19134425      -0.19904658      -0.31970468       0.00000000
O       10.50504355      11.53167556      12.18842461      -0.42702978       1.03126846      -0.02024817      -0.93107916       3.64560815      -0.44019033       0.00000000
H       11.81338744      12.28765849       9.99081145       0.12890342       0.01385662      -0.20190182      -1.86131850       1.36607845      -2.23763806       0.00000000
H       13.29842289      11.32030317      10.30079408       0.10835310      -0.26863431      -0.15677211       1.52160735      -0.84709887      -0.79544163       0.00000000
H       12.81381106      12.64757213      11.46603993       0.23378810       0.06593198       0.19161607       0.70114261       1.59147443       1.21867388       0.00000000
H       11.26127668       9.97892428      10.90002075       0.04183948      -0.29705649      -0.33196105      -0.29830497      -1.41842239      -1.22202024       0.00000000
H       12.24393485      10.32579306      12.41029691      -0.08220534      -0.31685931       0.31575072       1.50268525      -0.90532882       1.08521436       0.00000000
H        9.98825595      10.84428154      12.72550097      -0.21189463      -0.36934874       0.18260190      -1.59823182      -2.00838479       1.62849770       0.00000000
9
Lattice="23.296006118037088 0.0 0.0 0.0 22.649327160371357 0.0 0.0 0.0 22.71683509278982" Properties=species:S:1:pos:R:3:momenta:R:3:forces:R:3:magmoms:R:1 Energy:=T 4.1390592=T energy=-37.3217369824465 dipole="-0.010654746976146129 -0.3034234248485071 0.08682799230148239" magmom=0.0 free_energy=-37.3217369824465 pbc="T T T"
C       12.41778722      11.84146702      10.78859098      -0.29241871       0.54455719      -0.42153764       1.22746672      -1.19252806       1.05255467       0.00000000
C       11.59627522      10.83073562      11.60333695      -1.30917023       0.44480879       0.33269253       0.53442891      -0.99087002      -0.43289980       0.00000000
O       10.50366247      11.53511615      12.18832927      -0.49158334       1.19028417      -0.02450505      -1.69767225       2.82983337       0.26684185       0.00000000
H       11.81744103      12.28996814       9.97829673       0.04010644       0.07961903      -0.30798762      -1.75467399       1.31189977      -2.08239033       0.00000000
H       13.30552285      11.30620077      10.29220382       0.17201537      -0.30356592      -0.18908612       1.07084901      -0.57538682      -0.52045032       0.00000000
H       12.82604099      12.65268877      11.47683431       0.26404995       0.13538369       0.24315502       0.53118102       1.23673995       0.88009644       0.00000000
H       11.26295833       9.96275345      10.88238424       0.03080174      -0.35390746      -0.38122503      -0.15117414      -0.89666443      -0.78410870       0.00000000
H       12.24172746      10.30927128      12.42697990      -0.01673666      -0.35398542       0.35764810       1.16333189      -0.60652150       0.62093167       0.00000000
H        9.97601938      10.82388248      12.73634649      -0.27468875      -0.44674103       0.24609831      -0.95887167      -1.14318553       0.95720434       0.00000000
9
Lattice="23.296006118037088 0.0 0.0 0.0 22.649327160371357 0.0 0.0 0.0 22.71683509278982" Properties=species:S:1:pos:R:3:momenta:R:3:forces:R:3:magmoms:R:1 Energy:=T 4.1390592=T energy=-37.47571771419776 dipole="-0.011566638896542063 -0.29975258609765304 0.0859200685270086" magmom=0.0 free_energy=-37.47571771419776 pbc="T T T"
C       12.41671476      11.84357399      10.78697298      -0.22225028       0.49201794      -0.37404456       1.62993361      -0.94697627       0.88145970       0.00000000
C       11.59097564      10.83245497      11.60465387      -1.27432114       0.37638768       0.30949551       0.88469653      -1.79537617      -0.51172971       0.00000000
O       10.50202544      11.53898339      12.18827416      -0.59271792       1.30938109       0.00513511      -2.42073255       2.02003401       0.94016510       0.00000000
H       11.81729570      12.29541715       9.96079887      -0.03952010       0.13957370      -0.40142435      -1.48787998       1.12957585      -1.72254235       0.00000000
H       13.31518533      11.29072147      10.28236813       0.21295251      -0.32493997      -0.20761025       0.59619399      -0.29500793      -0.23388938       0.00000000
H       12.83954203      12.66076492      11.48973475       0.28512194       0.18629639       0.27679058       0.32691286       0.83652809       0.48961124       0.00000000
H       11.26427823       9.94443692      10.86287137       0.02681199      -0.38518964      -0.40928228      -0.01129631      -0.37720901      -0.35843928       0.00000000
H       12.24230391      10.29129811      12.44514878       0.03177738      -0.37616290       0.37642348       0.81225813      -0.29659015       0.14363973       0.00000000
H        9.96148825      10.80074780      12.74948260      -0.30704151      -0.48212718       0.27742303      -0.35859822      -0.29781007       0.31840191       0.00000000
9
Lattice="23.296006118037088 0.0 0.0 0.0 22.649327160371357 0.0 0.0 0.0 22.71683509278982" Properties=species:S:1:pos:R:3:momenta:R:3:forces:R:3:magmoms:R:1 Energy:=T 4.1390592=T energy=-37.54947414156979 dipole="-0.013074877393454063 -0.2951995712303339 0.08488309519197292" magmom=0.0 free_energy=-37.54947414156979 pbc="T T T"
C       12.41596964      11.84549078      10.78553201      -0.13531600       0.45395481      -0.33857139       1.91020616      -0.60303155       0.56307949       0.00000000
C       11.58585372      10.83381375      11.60586803      -1.22301609       0.27051983       0.28290179       1.20454886      -2.51577678      -0.57122034       0.00000000
O       10.50002344      11.54315518      12.18836079      -0.72615592       1.39096130       0.06518719      -3.01313259       1.30207727       1.50527738       0.00000000
H       11.81358990      12.30356923       9.93917898      -0.10348119       0.18841970      -0.47297327      -1.11674501       0.85953217      -1.19107419       0.00000000
H       13.32627451      11.27453622      10.27197275       0.23116241      -0.33226654      -0.21257003       0.14535024      -0.00334475       0.03191695       0.00000000
H       12.85382537      12.67084286      11.50380682       0.29561423       0.21737460       0.29104537       0.10035437       0.42903955       0.09087273       0.00000000
H       11.26557109       9.92521774      10.84250076       0.02874996      -0.39243811      -0.41695292       0.09021436       0.08203641       0.04607534       0.00000000
H       12.24482408      10.27261520      12.46366138       0.06343584      -0.38322685       0.37279659       0.47693840       0.00893163      -0.29133424       0.00000000
H        9.94609900      10.77690046      12.76338064      -0.31200435      -0.47877488       0.27970424       0.15650153       0.43432243      -0.22550634       0.00000000
9
Lattice="23.296006118037088 0.0 0.0 0.0 22.649327160371357 0.0 0.0 0.0 22.71683509278982" Properties=species:S:1:pos:R:3:momenta:R:3:forces:R:3:magmoms:R:1 Energy:=T 4.1390592=T energy=-37.533838317997684 dipole="-0.014998990574571047 -0.2905358507938288 0.08383244116878291" magmom=0.0 free_energy=-37.533838317997684 pbc="T T T"
C       12.41560814      11.84728647      10.78420412      -0.03734144       0.43340987      -0.32050356       2.07951612      -0.23359976       0.17267876       0.00000000
C       11.58097371      10.83466730      11.60696747      -1.15728191       0.13267224       0.25362074       1.47227991      -3.09765562      -0.62116310       0.00000000
O       10.49756716      11.54752329      12.18867438      -0.88483218       1.44014498       0.14979101      -3.44848560       0.70078139       1.93996103       0.00000000
H       11.80721173      12.31377816       9.91470886      -0.14784345       0.22337269      -0.51678331      -0.68977571       0.56382437      -0.59295925       0.00000000
H       13.33771150      11.25834297      10.26165374       0.22842296      -0.32567352      -0.20513387      -0.25690640       0.27182582       0.27089864       0.00000000
H       12.86834886      12.68194750      11.51809635       0.29506936       0.22896498       0.28606947      -0.12254228       0.04294388      -0.29350127       0.00000000
H       11.26707984       9.90619486      10.82224041       0.03499951      -0.37873836      -0.40618270       0.16428004       0.47584535       0.39250980       0.00000000
H       12.24848556      10.25395366      12.48147682       0.07964358      -0.37603962       0.34937981       0.18307321       0.28374709      -0.66224420       0.00000000
H        9.93108425      10.75409245      12.77673904      -0.29447940      -0.44302145       0.25843974       0.55714988       1.02162954      -0.64042714       0.00000000
9
Lattice="23.296006118037088 0.0 0.0 0.0 22.649327160371357 0.0 0.0 0.0 22.71683509278982" Properties=species:S:1:pos:R:3:momenta:R:3:forces:R:3:magmoms:R:1 Energy:=T 4.1390592=T energy=-37.44419491823531 dipole="-0.01703631654493919 -0.28640342362210025 0.08282551318350939" magmom=0.0 free_energy=-37.44419491823531 pbc="T T T"
C       12.41566426      11.84903524      10.78291091       0.06674723       0.43027018      -0.32170385       2.15918487       0.10574515      -0.22155675       0.00000000
C       11.57638937      10.83489876      11.60794216      -1.07964270      -0.02995393       0.22199345       1.68934547      -3.52481121      -0.66676422       0.00000000
O       10.49459096      11.55199705      12.18928045      -1.06109189       1.46245934       0.25249767      -3.72916638       0.20790461       2.24246189       0.00000000
H       11.79918294      12.32533631       9.88881981      -0.17146407       0.24360022      -0.53118456      -0.27210366       0.25988141       0.00651138       0.00000000
H       13.34853372      11.24280020      10.25198299       0.20762803      -0.30671295      -0.18701851      -0.58990523       0.50028683       0.46679533       0.00000000
H       12.88257910      12.69315490      11.53168354       0.28455979       0.22269064       0.26391774      -0.30542886      -0.29844750      -0.60856195       0.00000000
H       11.26898170       9.88831068      10.80291933       0.04417540      -0.34753811      -0.37973371       0.20938072       0.79469187       0.68454632       0.00000000
H       12.25258514      10.23597113      12.49770752       0.08254434      -0.35641586       0.30944379      -0.06494814       0.51537205      -0.96403138       0.00000000
H        9.91740275      10.73372919      12.78856491      -0.26010790      -0.38201362       0.21952157       0.84252713       1.46273245      -0.94439976       0.00000000
9
Lattice="23.296006118037088 0.0 0.0 0.0 22.649327160371357 0.0 0.0 0.0 22.71683509278982" Properties=species:S:1:pos:R:3:momenta:R:3:forces:R:3:magmoms:R:1 Energy:=T 4.1390592=T energy=-37.30879859644361 dipole="-0.01883348641222813 -0.2832904990172324 0.08186725398580573" magmom=0.0 free_energy=-37.30879859644361 pbc="T T T"
C       12.41615400      11.85080525      10.78157320       0.17309542       0.44222549      -0.34114935       2.17152881       0.38109934      -0.57030326       0.00000000
C       11.57214430      10.83442234      11.60878295      -0.99267492      -0.20970924       0.18814056       1.85215844      -3.79518862      -0.71179402       0.00000000
O       10.49105251      11.55650216      12.19022460      -1.24769091       1.46277998       0.36696410      -3.86952312      -0.19484732       2.41884299       0.00000000
H       11.79050301      12.33751636       9.86294633      -0.17570057       0.24950148      -0.51734631       0.09958460      -0.01957011       0.55701006       0.00000000
H       13.35794431      11.22845460      10.24342928       0.17233390      -0.27753093      -0.16043983      -0.84734309       0.68806426       0.61554243       0.00000000
H       12.89607846      12.70364812      11.54381444       0.26574292       0.20137309       0.22780420      -0.46083200      -0.56964619      -0.86205442       0.00000000
H       11.27138461       9.87232819      10.78523636       0.05480796      -0.30236017      -0.34031735       0.22359833       1.04504526       0.92056790       0.00000000
H       12.25652929      10.21922187      12.51163131       0.07447181      -0.32651816       0.25634064      -0.26378158       0.70212274      -1.19843616       0.00000000
H        9.90573742      10.71686623      12.79813084      -0.21429863      -0.30250641       0.16830378       1.02291896       1.77496220      -1.14129197       0.00000000
9
Lattice="23.296006118037088 0.0 0.0 0.0 22.649327160371357 0.0 0.0 0.0 22.71683509278982" Properties=species:S:1:pos:R:3:momenta:R:3:forces:R:3:magmoms:R:1 Energy:=T 4.1390592=T energy=-37.160855031205976 dipole="-0.020061731028022847 -0.2814825595903113 0.08089022582112548" magmom=0.0 free_energy=-37.160855031205976 pbc="T T T"
C       12.41707985      11.85265180      10.78012096       0.27879988       0.46573072      -0.37591387       2.13297051       0.57608125      -0.84537863       0.00000000
C       11.56827120      10.83318374      11.60948079      -0.89913924      -0.39906126       0.15218058       1.95680389      -3.91560850      -0.75256920       0.00000000
O       10.48693067      11.56097789      12.19153345      -1.43791161       1.44475547       0.48737941      -3.87664860      -0.53914748       2.48471187       0.00000000
H       11.78206139      12.34964957       9.83840577      -0.16344119       0.24279732      -0.47896966       0.39964204      -0.25343677       1.00576455       0.00000000
H       13.36532721      11.21575554      10.23634856       0.12605070      -0.24014563      -0.12760710      -1.03740240       0.83434088       0.72147265       0.00000000
H       12.90847505      12.71277818      11.55388246       0.23972834       0.16830025       0.18027217      -0.59853443      -0.77714677      -1.07354606       0.00000000
H       11.27432259       9.85884648      10.76975630       0.06588430      -0.24631499      -0.29086848       0.22745264       1.23722789       1.09308995       0.00000000
H       12.25984222      10.20415279      12.52268724       0.05778217      -0.28839689       0.19338621      -0.41585431       0.85025261      -1.36519585       0.00000000
H        9.89651992      10.70425073      12.80496567      -0.16125730      -0.21008809       0.10932121       1.13703137       1.98849878      -1.26059787       0.00000000
9
Lattice="23.296006118037088 0.0 0.0 0.0 22.649327160371357 0.0 0.0 0.0 22.71683509278982" Properties=species:S:1:pos:R:3:momenta:R:3:forces:R:3:magmoms:R:1 Energy:=T 4.1390592=T energy=-37.03065793283875 dipole="-0.02044600768898835 -0.2811134732164129 0.07979401560236911" magmom=0.0 free_energy=-37.03065793283875 pbc="T T T"
C       12.41843405      11.85461404      10.77849894       0.38154192       0.49679280      -0.42218380       2.05089315       0.68882929      -1.03882618       0.00000000
C       11.56479107      10.83115878      11.61002749      -0.80179339      -0.59096940       0.11431578       2.00731576      -3.89927926      -0.78936176       0.00000000
O       10.48222436      11.56537233      12.19321690      -1.62565258       1.41105049       0.60868580      -3.76854353      -0.83338727       2.45512973       0.00000000
H       11.77457610      12.36117632       9.81627199      -0.13793641       0.22575074      -0.42059871       0.63896417      -0.44073452       1.37121884       0.00000000
H       13.37022762      11.20505304      10.23099431       0.07212727      -0.19645926      -0.09047264      -1.15846876       0.94465638       0.79071764       0.00000000
H       12.91943936      12.72004853      11.56138149       0.20778273       0.12663782       0.12387972      -0.70235521      -0.91943186      -1.22286879       0.00000000
H       11.27780486       9.84832544      10.75689199       0.07676334      -0.18220156      -0.23408245       0.21556389       1.37360076       1.21935217       0.00000000
H       12.26216001      10.19111835      12.53047628       0.03450509      -0.24405623       0.12366100      -0.53203546       0.95538866      -1.47415559       0.00000000
H        9.89002332      10.69639369      12.80878390      -0.10429734      -0.10947722       0.04597462       1.18249314       2.10857927      -1.31900305       0.00000000
9
Lattice="23.296006118037088 0.0 0.0 0.0 22.649327160371357 0.0 0.0 0.0 22.71683509278982" Properties=species:S:1:pos:R:3:momenta:R:3:forces:R:3:magmoms:R:1 Energy:=T 4.1390592=T energy=-36.942013668870466 dipole="-0.01979724841942909 -0.28220512789949526 0.078468199989119" magmom=0.0 free_energy=-36.942013668870466 pbc="T T T"
C       12.42020013      11.85671461      10.77666830       0.47920340       0.53154353      -0.47599985       1.92608000       0.72629054      -1.15267254       0.00000000
C       11.56171406      10.82835074      11.61041567      -0.70306018      -0.77892645       0.07472400       2.01330050      -3.75471182      -0.82289552       0.00000000
O       10.47694987      11.56964113      12.19527051      -1.80571487       1.36432873       0.72681404      -3.56395713      -1.06921739       2.35529112       0.00000000
H       11.76861985      12.37164839       9.79741953      -0.10243294       0.20055652      -0.34663364       0.80680923      -0.58522504       1.64078821       0.00000000
H       13.37235582      11.19661110      10.22753223       0.01381429      -0.14830551      -0.05085176      -1.21615387       1.01626184       0.82272487       0.00000000
H       12.92872293      12.72511870      11.56595421       0.17173733       0.07920521       0.06146561      -0.76548666      -1.01212004      -1.31875983       0.00000000
H       11.28180298       9.84109142      10.74694558       0.08660908      -0.11268510      -0.17219126       0.18537463       1.45725000       1.30098235       0.00000000
H       12.26320465      10.18037015      12.53473768       0.00635539      -0.19537382       0.04975341      -0.61427746       1.02705744      -1.53551109       0.00000000
H        9.88635641      10.69358247      12.80944578      -0.04641736      -0.00479386      -0.01879634       1.17449681       2.15433885      -1.31860159       0.00000000
9
Lattice="23.296006118037088 0.0 0.0 0.0 22.649327160371357 0.0 0.0 0.0 22.71683509278982" Properties=species:S:1:pos:R:3:momenta:R:3:forces:R:3:magmoms:R:1 Energy:=T 4.1390592=T energy=-36.90981976996882 dipole="-0.018019846875969713 -0.28471678596939237 0.07681425957707971" magmom=0.0 free_energy=-36.90981976996882 pbc="T T T"
C       12.42235302      11.85896104      10.77460618       0.56958959       0.56652912      -0.53367858       1.75462842       0.69839369      -1.19612201       0.00000000
C       11.55904138      10.82478865      11.61063859      -0.60501415      -0.95697018       0.03351811       1.97933210      -3.49558903      -0.85509192       0.00000000
O       10.47113805      11.57374872      12.19767923      -1.97366139       1.30763373       0.83857410      -3.27516466      -1.23951744       2.19580434       0.00000000
H       11.76459428      12.38072002       9.78249346      -0.05980059       0.16921271      -0.26099763       0.92926620      -0.69115832       1.84648334       0.00000000
H       13.37157378      11.19060106      10.22603894      -0.04593868      -0.09767680      -0.01058497      -1.21710760       1.04544144       0.81702013       0.00000000
H       12.93617471      12.72776687      11.56737115       0.13327103       0.02839004      -0.00428268      -0.80093866      -1.05717620      -1.35864352       0.00000000
H       11.28624469       9.83734457      10.74011240       0.09453427      -0.04035250      -0.10714150       0.13735508       1.48827963       1.34797519       0.00000000
H       12.26277933      10.17207969      12.53532462      -0.02496437      -0.14383449      -0.02608575      -0.66112641       1.07172853      -1.55281266       0.00000000
H        9.88550007      10.69592655      12.80695225       0.00968048       0.10029119      -0.08214202       1.10992084       2.12493690      -1.26096276       0.00000000
9
Lattice="23.296006118037088 0.0 0.0 0.0 22.649327160371357 0.0 0.0 0.0 22.71683509278982" Properties=species:S:1:pos:R:3:momenta:R:3:forces:R:3:magmoms:R:1 Energy:=T 4.1390592=T energy=-36.93906709278725 dipole="-0.015113857461869376 -0.2885696862279426 0.07476922573414681" magmom=0.0 free_energy=-36.93906709278725 pbc="T T T"
C       12.42485828      11.86134773      10.77230384       0.65039585       0.59883830      -0.59205003       1.53596586       0.61730158      -1.18088118       0.00000000
C       11.55676621      10.82052456      11.61068979      -0.50962783      -1.11997528      -0.00920479       1.90499194      -3.14230817      -0.88467078       0.00000000
O       10.46483244      11.57766943      12.20041900      -2.12547892       1.24440160       0.94080164      -2.90715206      -1.33542299       1.96710802       0.00000000
H       11.76279244      12.38813772       9.77198600      -0.01221290       0.13333828      -0.16712415       1.00860088      -0.76972101       1.97623480       0.00000000
H       13.36787922      11.18709275      10.22650076      -0.10439064      -0.04638235       0.02857212      -1.16317452       1.04337222       0.77753552       0.00000000
H       12.94170984      12.72788523      11.56553688       0.09377663      -0.02340609      -0.07091952      -0.80735312      -1.05206707      -1.35494326       0.00000000
H       11.29101509       9.83715917      10.73650492       0.09993148       0.03242921      -0.04079529       0.08243033       1.47553875       1.35377692       0.00000000
H       12.26077194      10.16635386      12.53219570      -0.05768064      -0.09074973      -0.10152333      -0.67114623       1.08999004      -1.51915843       0.00000000
H        9.88729975      10.70335558      12.80144125       0.06117497       0.20202133      -0.14125128       0.98703904       2.01772029      -1.14608582       0.00000000
9
Lattice="23.296006118037088 0.0 0.0 0.0 22.649327160371357 0.0 0.0 0.0 22.71683509278982" Properties=species:S:1:pos:R:3:momenta:R:3:forces:R:3:magmoms:R:1 Energy:=T 4.1390592=T energy=-37.025240785936155 dipole="-0.011174876874654387 -0.29366368449402996 0.07230363284854481" magmom=0.0 free_energy=-37.025240785936155 pbc="T T T"
C       12.42767201      11.86385839      10.76976434       0.71929607       0.62611243      -0.64836438       1.26979056       0.49335586      -1.11235302       0.00000000
C       11.55487361      10.81562940      11.61056331      -0.41855365      -1.26309423      -0.05327008       1.80373271      -2.68578495      -0.90975704       0.00000000
O       10.45808853      11.58138881      12.20345534      -2.25720989       1.17810492       1.03007771      -2.45719953      -1.36431185       1.66839401       0.00000000
H       11.76340416      12.39371349       9.76620765       0.03823446       0.09454648      -0.06870899       1.04571755      -0.80995949       2.03142939       0.00000000
H       13.36140119      11.18608122      10.22882321      -0.15880521       0.00392981       0.06498617      -1.05269671       1.00544090       0.70531857       0.00000000
H       12.94531299      12.72548601      11.56046023       0.05466478      -0.07383397      -0.13620344      -0.78536084      -1.00145808      -1.30355016       0.00000000
H       11.29598275       9.84050472      10.73613701       0.10244664       0.10355807       0.02477109       0.01999222       1.42097244       1.31621865       0.00000000
H       12.25715850      10.16323637      12.52543144      -0.08998114      -0.03756608      -0.17413289      -0.64419550       1.07575605      -1.43764943       0.00000000
H        9.89146141      10.71561299      12.79318768       0.10522579       0.29622533      -0.19323166       0.80679945       1.81845682      -0.97066033       0.00000000
9
Lattice="23.296006118037088 0.0 0.0 0.0 22.649327160371357 0.0 0.0 0.0 22.71683509278982" Properties=species:S:1:pos:R:3:momenta:R:3:forces:R:3:magmoms:R:1 Energy:=T 4.1390592=T energy=-37.15406888280919 dipole="-0.00638698644318005 -0.2998811890967604 0.06944524823582866" magmom=0.0 free_energy=-37.15406888280919 pbc="T T T"
C       12.43074074      11.86646813      10.76700146       0.77379062       0.64618944      -0.70006434       0.94933751       0.32422062      -0.99297407       0.00000000
C       11.55334324      10.81019487      11.61025414      -0.33297721      -1.38122371      -0.09849510       1.68111313      -2.12468650      -0.93189731       0.00000000
O       10.45097415      11.58490249      12.20674323      -2.36523887       1.11261910       1.10293551      -1.94195936      -1.30240310       1.29852322       0.00000000
H       11.76651828      12.39735103       9.76529049       0.08945359       0.05451369       0.03089100       1.04002907      -0.82025673       2.02448360       0.00000000
H       13.35240407      11.18747570      10.23283349      -0.20633145       0.05135255       0.09710345      -0.88266831       0.92570913       0.60256210       0.00000000
H       12.94703678      12.72069031      11.55226421       0.01741218      -0.12066372      -0.19778377      -0.73164014      -0.90554406      -1.20412554       0.00000000
H       11.30099825       9.84725063      10.73891880       0.10157256       0.17073753       0.08740645      -0.05558672       1.31471092       1.23441976       0.00000000