9
Lattice="23.296006118037088 0.0 0.0 0.0 22.649327160371357 0.0 0.0 0.0 22.71683509278982" Properties=species:S:1:pos:R:3:momenta:R:3:forces:R:3:magmoms:R:1 Energy:=T 4.1390592=T energy=-36.85216055926482 dipole="-0.011266156782154847 -0.30293674599181786 0.08794038955740514" magmom=0.0 free_energy=-36.85216055926482 pbc="T T T"
C       12.42207036      11.83368987      10.79464830       0.29671550      -0.58663688      -0.10640566      -0.30288066      -0.77875700       0.37211921       0.00000000
C       11.61254836      10.82499477      11.59896323      -1.25453498       0.00066504      -0.15544404      -0.37396386       0.89661427       0.01876222       0.00000000
O       10.50748564      11.52654319      12.18832537      -0.11176557      -0.68211397      -2.25654473       0.14685460       4.65699715      -1.38056279       0.00000000
H       11.79213304      12.29264105      10.00000000       0.14969955       0.06942943      -0.04618834      -1.49754519       1.06972495      -1.83085535       0.00000000
H       13.29600612      11.34193956      10.31171856       0.18958617       0.10001388       0.21724423       2.07999153      -1.15887847      -1.15749774       0.00000000
H       12.79464938      12.64932716      11.45377233      -0.02356892       0.17458571       0.12118880       0.84491750       1.90884482       1.55717518       0.00000000
H       11.25544912      10.00000000      10.92561081      -0.26745803      -0.10150856      -0.02846676      -0.53052763      -2.20056275      -1.86045426       0.00000000
H       12.25979758      10.35173888      12.38565610       0.01354684       0.02151511       0.18660309       1.94281653      -1.31938438       1.73082421       0.00000000
H       10.00000000      10.86900330      12.71683509       0.27180633      -0.10550766       0.09133491      -2.38574352      -3.08229733       2.47950244       0.00000000
Lattice="23.296006118037088 0.0 0.0 0.0 22.649327160371357 0.0 0.0 0.0 22.71683509278982" Properties=species:S:1:pos:R:3:momenta:R:3:forces:R:3:magmoms:R:1 Energy:=T 4.1390592=T energy=-36.93810063884765 dipole="-0.008157431117407165 -0.3014450286040233 0.08072197219565501" magmom=0.0 free_energy=-36.93810063884765 pbc="T T T"
C       12.42294173      11.83068699      10.79143097       0.19207179      -0.75005041      -0.79598829      -0.85629494      -0.63851300      -0.37349571       0.00000000
C       11.61551665      10.82026408      11.59427936       0.71460229      -1.13308482      -1.13552021      -0.46065572       0.97059097       0.40509641       0.00000000
O       10.50963807      11.53236370      12.19245512       0.70809973       2.00193326       1.31010458       0.28223134       4.31115326      -1.43285277       0.00000000
H       11.79356536      12.29153561       9.97078830       0.00203589      -0.00355414      -0.63049042      -1.11419336       0.77916946      -1.26044590       0.00000000
H       13.28870215      11.33842158      10.29965319      -0.09631328      -0.10235423      -0.27664932       2.18240093      -1.22783334      -1.18178657       0.00000000
H       12.80227514      12.64468414      11.43745994       0.17924591      -0.04354242      -0.29290555       0.92583626       2.10738407       1.70577150       0.00000000
H       11.25484034       9.99432381      10.92156292      -0.02542990      -0.16963365      -0.12690026      -0.52675028      -2.16381311      -1.78451242       0.00000000
H       12.27402889      10.35869594      12.39071457       0.33481011       0.11290473       0.14063221       1.73997322      -1.21682368       1.49908432       0.00000000
H        9.99775974      10.87536011      12.72637281      -0.10090981       0.05812379       0.25324031      -2.23689801      -2.94593704       2.34107841       0.00000000
9
Lattice="23.296006118037088 0.0 0.0 0.0 22.649327160371357 0.0 0.0 0.0 22.71683509278982" Properties=species:S:1:pos:R:3:momenta:R:3:forces:R:3:magmoms:R:1 Energy:=T 4.1390592=T energy=-37.11771274784992 dipole="-0.004759444370196531 -0.2983201188225822 0.07354822499113789" magmom=0.0 free_energy=-37.11771274784992 pbc="T T T"
C       12.42364113      11.82755589      10.78813864       0.14341054      -0.77466558      -0.83277021      -1.12528954      -0.36386636      -1.12433860       0.00000000
C       11.61839243      10.81572831      11.58967685       0.69147033      -1.09105018      -1.10656310      -0.48132457       0.74114481       0.77409549       0.00000000
O       10.51183306      11.53883420      12.19636884       0.71695459       2.19704152       1.24741539       0.07835671       3.63404978      -1.11997782       0.00000000
H       11.79233143      12.29229471       9.93856037      -0.04247331       0.02712987      -0.67699997      -0.69831136       0.47034510      -0.63351717       0.00000000
H       13.28662064      11.33196540      10.28475981       0.00805601      -0.16122599      -0.33222782       2.06772756      -1.16954348      -1.08148245       0.00000000
H       12.81211642      12.64508407      11.42522945       0.22429896       0.05984451      -0.20965848       0.90881502       2.10274056       1.68421794       0.00000000
H       11.25297105       9.98346965      10.91324472      -0.04918572      -0.27060388      -0.20896827      -0.44063468      -1.94789904      -1.55746297       0.00000000
H       12.29242394      10.36274115      12.39936034       0.41216300       0.05745569       0.20502313       1.40999293      -1.04117316       1.12304429       0.00000000
H        9.99016660      10.87466731      12.74151269      -0.19933144      -0.07359805       0.35688694      -1.77102973      -2.41804268       1.87962205       0.00000000
9
Lattice="23.296006118037088 0.0 0.0 0.0 22.649327160371357 0.0 0.0 0.0 22.71683509278982" Properties=species:S:1:pos:R:3:momenta:R:3:forces:R:3:magmoms:R:1 Energy:=T 4.1390592=T energy=-37.32823167607205 dipole="-0.001024055692699543 -0.29391393667443433 0.06670868724772794" magmom=0.0 free_energy=-37.32823167607205 pbc="T T T"
C       12.42411455      11.82435171      10.78462051       0.08926572      -0.78341183      -0.90464169      -1.07959728       0.00770118      -1.80241353       0.00000000
C       11.62117155      10.81134138      11.58522980       0.66828326      -1.06594955      -1.06091655      -0.46289988       0.28100363       1.08472445       0.00000000
O       10.51403986      11.54585259      12.20011371       0.71055502       2.35402545       1.20513926      -0.33896018       2.75865324      -0.60159175       0.00000000
H       11.78942645      12.29417935       9.90481643      -0.06720104       0.04303855      -0.69313275      -0.30865159       0.17748893      -0.02344214       0.00000000
H       13.28948719      11.32271053      10.26727846       0.10222836      -0.21466277      -0.38035833       1.76716104      -1.00651053      -0.87848949       0.00000000
H       12.82413249      12.65051583      11.41702928       0.26625980       0.15763078      -0.13126853       0.79991505       1.87931434       1.50797921       0.00000000
H       11.25004732       9.96795418      10.90119952      -0.06728226      -0.35714162      -0.27691413      -0.29629335      -1.57609254      -1.20942987       0.00000000
H       12.31419309      10.36429485      12.41069353       0.47123401       0.01150353       0.24936814       0.99549820      -0.83009200       0.68277428       0.00000000
H        9.97833541      10.86818817      12.76115050      -0.27036283      -0.17398346       0.43369423      -1.12151216      -1.66985421       1.24812620       0.00000000
9
Lattice="23.296006118037088 0.0 0.0 0.0 22.649327160371357 0.0 0.0 0.0 22.71683509278982" Properties=species:S:1:pos:R:3:momenta:R:3:forces:R:3:magmoms:R:1 Energy:=T 4.1390592=T energy=-37.50263927566538 dipole="0.0030096697413221755 -0.2887368473687146 0.060450693544985404" magmom=0.0 free_energy=-37.50263927566538 pbc="T T T"
C       12.42437116      11.82114908      10.78074040       0.04394541      -0.77277900      -1.00721985      -0.76593722       0.42528950      -2.37477653       0.00000000
C       11.62385771      10.80701088      11.58100059       0.64598516      -1.06566615      -1.00120868      -0.44512393      -0.26946290       1.34670086       0.00000000
O       10.51619556      11.55328689      12.20376788       0.68239922       2.46648883       1.18909945      -0.80760118       1.82108290      -0.05158188       0.00000000
H       11.78578286      12.29648871       9.87101640      -0.07419143       0.04565766      -0.68068975       0.02398847      -0.07083377       0.53014606       0.00000000
H       13.29658253      11.31104708      10.24769489       0.17854411      -0.25827537      -0.41672371       1.34057064      -0.76948247      -0.60238216       0.00000000
H       12.83806274      12.66044477      11.41243768       0.30099923       0.24042390      -0.06486099       0.61474492       1.49218899       1.19627013       0.00000000
H       11.24641457       9.94866714      10.88626016      -0.07744864      -0.42319404      -0.32597205      -0.11770213      -1.11369570      -0.78830774       0.00000000
H       12.33834446      10.36386214      12.42366061       0.50961995      -0.02396665       0.27124298       0.56765477      -0.61432541       0.20801331       0.00000000
H        9.96382046      10.85771308      12.78377506      -0.30896448      -0.23654914       0.47791075      -0.45042523      -0.87794685       0.55245973       0.00000000
9
Lattice="23.296006118037088 0.0 0.0 0.0 22.649327160371357 0.0 0.0 0.0 22.71683509278982" Properties=species:S:1:pos:R:3:momenta:R:3:forces:R:3:magmoms:R:1 Energy:=T 4.1390592=T energy=-37.595363220068386 dipole="0.007149476889211264 -0.28335360196621684 0.05493371107584638" magmom=0.0 free_energy=-37.595363220068386 pbc="T T T"
C       12.42447394      11.81803186      10.77638338       0.01819415      -0.74143037      -1.13487175      -0.28270626       0.85128992      -2.82346693       0.00000000
C       11.62645447      10.80262627      11.57704183       0.62450999      -1.09212544      -0.93001109      -0.42938828      -0.80801304       1.55260881       0.00000000
O       10.51822950      11.56099576      12.20741427       0.63304712       2.53407882       1.19854006      -1.20211614       0.93131827       0.43602253       0.00000000
H       11.78219669      12.29862856       9.83848501      -0.06623579       0.03710019      -0.64352173       0.29998155      -0.27764373       0.98341125       0.00000000
H       13.30688584      11.29754227      10.22666983       0.23251237      -0.28916123      -0.43837657       0.85712621      -0.48825241      -0.27936606       0.00000000
H       12.85346407      12.67394451      11.41070874       0.32505740       0.30160285      -0.01559611       0.36495233       0.99914143       0.80989546       0.00000000
H       11.24250015       9.92671503      10.86943440      -0.07866970      -0.46630319      -0.35445180       0.06797822      -0.64179612      -0.37144544       0.00000000
H       12.36385422      10.36195936      12.43712545       0.52691136      -0.04925849       0.27043308       0.13648645      -0.41560939      -0.24099406       0.00000000
H        9.94822764      10.84513708      12.80772164      -0.31631116      -0.26209513       0.48981183       0.15125371      -0.16233778      -0.06782336       0.00000000
9
Lattice="23.296006118037088 0.0 0.0 0.0 22.649327160371357 0.0 0.0 0.0 22.71683509278982" Properties=species:S:1:pos:R:3:momenta:R:3:forces:R:3:magmoms:R:1 Energy:=T 4.1390592=T energy=-37.592379616823585 dipole="0.011173745483158292 -0.2782696300968008 0.05023642974430126" magmom=0.0 free_energy=-37.592379616823585 pbc="T T T"
C       12.42451995      11.81508561      10.77145933       0.01790958      -0.68983192      -1.28127944       0.27111820       1.24990350      -3.13855055       0.00000000
C       11.62896500      10.79807939      11.57339488       0.60351925      -1.14320547      -0.85020961      -0.42539713      -1.27206922       1.69706892       0.00000000
O       10.52008220      11.56884504      12.21112639       0.56738498       2.56123181       1.22949096      -1.47177893       0.17440638       0.82436100       0.00000000
H       11.77932836      12.30010402       9.80830691      -0.04695773       0.01990334      -0.58648454       0.48506011      -0.42264650       1.33925836       0.00000000
H       13.31924025      11.28286908      10.20497625       0.26286594      -0.30600110      -0.44425450       0.37893256      -0.19750108       0.04000466       0.00000000
H       12.86973873      12.68983518      11.41091788       0.33614894       0.33716775       0.01435420       0.08671762       0.44913313       0.40974159       0.00000000
H       11.23874841       9.90322712      10.85171977      -0.07120980      -0.48666192      -0.36295948       0.23580396      -0.18725248       0.02499577       0.00000000
H       12.38969058      10.35906203      12.45001360       0.52466725      -0.06542284       0.24969956      -0.22787086      -0.24263571      -0.60331650       0.00000000
H        9.93299677      10.83217260      12.83150593      -0.29682145      -0.25572891       0.47377212       0.64240656       0.42158333      -0.58534617       0.00000000
9
Lattice="23.296006118037088 0.0 0.0 0.0 22.649327160371357 0.0 0.0 0.0 22.71683509278982" Properties=species:S:1:pos:R:3:momenta:R:3:forces:R:3:magmoms:R:1 Energy:=T 4.1390592=T energy=-37.50723777197023 dipole="0.014893037215449654 -0.2738777179452477 0.04634523787695191" magmom=0.0 free_energy=-37.50723777197023 pbc="T T T"
C       12.42462041      11.81239036      10.76590497       0.04459179      -0.62026663      -1.44030941       0.81543501       1.58293561      -3.33747152       0.00000000
C       11.63139010      10.79327704      11.57008875       0.58276014      -1.21447354      -0.76477220      -0.41995582      -1.63011052       1.78211506       0.00000000
O       10.52171300      11.57672062      12.21496281       0.49153766       2.55474596       1.27694103      -1.61687730      -0.43852315       1.10790151       0.00000000
H       11.77762078      12.30056809       9.78133363      -0.01989071      -0.00336914      -0.51399236       0.61716347      -0.52505608       1.61276972       0.00000000
H       13.33250143      11.26772327      10.18337840       0.27102815      -0.30890921      -0.43461467      -0.04655104       0.07907668       0.35254874       0.00000000
H       12.88622090      12.70680062      11.41210752       0.33411271       0.34657894       0.02527603      -0.16963698      -0.06589047       0.03501759       0.00000000
H       11.23556095       9.87929111      10.83406495      -0.05601536      -0.48580984      -0.35310207       0.38294453       0.22195087       0.37641780       0.00000000
H       12.41498166      10.35558408      12.46145801       0.50517401      -0.07395530       0.21248919      -0.56593333      -0.10482322      -0.91196503       0.00000000
H        9.91930317      10.82021697      12.85388949      -0.25627414      -0.22404799       0.43537079       1.00876185       0.86852796      -0.97843362       0.00000000
9
Lattice="23.296006118037088 0.0 0.0 0.0 22.649327160371357 0.0 0.0 0.0 22.71683509278982" Properties=species:S:1:pos:R:3:momenta:R:3:forces:R:3:magmoms:R:1 Energy:=T 4.1390592=T energy=-37.36856061790969 dipole="0.01823036630427362 -0.27043515280452196 0.04317346389093867" magmom=0.0 free_energy=-37.36856061790969 pbc="T T T"
C       12.42488463      11.81001301      10.75968036       0.09644555      -0.53654901      -1.60673428       1.29615520       1.82621515      -3.43968554       0.00000000
C       11.63373086      10.78814733      11.56714051       0.56225728      -1.30000770      -0.67612750      -0.41496228      -1.85301353       1.82767670       0.00000000
O       10.52310003      11.58453008      12.21896626       0.41036093       2.52059055       1.33545943      -1.68880343      -0.95235417       1.27508630       0.00000000
H       11.77739006      12.29977571       9.75821970       0.01253872      -0.03085567      -0.43045373       0.70342850      -0.59425105       1.78909234       0.00000000
H       13.34565123      11.25276669      10.16262419       0.25965335      -0.29937175      -0.41096582      -0.41665373       0.30930837       0.61048043       0.00000000
H       12.90229713      12.72360838      11.41338096       0.32002126       0.33247357       0.01899458      -0.40419525      -0.50850846      -0.29081084       0.00000000
H       11.23328986       9.85588623      10.81731090      -0.03442800      -0.46621160      -0.32753830       0.49613628       0.57612932       0.66459055       0.00000000
H       12.43891846      10.35185528      12.47072011       0.47095987      -0.07653744       0.16161348      -0.82733566      -0.00032668      -1.15979687       0.00000000
H        9.90802353      10.81033971      12.87393167      -0.20045169      -0.17328258       0.38060203       1.26444150       1.19874217      -1.25186104       0.00000000
9
Lattice="23.296006118037088 0.0 0.0 0.0 22.649327160371357 0.0 0.0 0.0 22.71683509278982" Properties=species:S:1:pos:R:3:momenta:R:3:forces:R:3:magmoms:R:1 Energy:=T 4.1390592=T energy=-37.21055028766817 dipole="0.021202940452216885 -0.26809447855023805 0.040608413454539326" magmom=0.0 free_energy=-37.21055028766817 pbc="T T T"
C       12.42540915      11.80800242      10.75276497       0.16974517      -0.44358227      -1.77623663       1.68875352       1.95957852      -3.46279312       0.00000000
C       11.63598829      10.78264547      11.56455932       0.54218612      -1.39329981      -0.58619676      -0.40237604      -1.94602991       1.83448464       0.00000000
O       10.52423244      11.59219596      12.22316195       0.32727735       2.46358578       1.40007162      -1.69452783      -1.36899530       1.35605295       0.00000000
H       11.77884264      12.29756129       9.73938705       0.04821532      -0.06088978      -0.33979414       0.74939477      -0.62879873       1.90274942       0.00000000
H       13.35780397      11.23855028      10.14333086       0.23195352      -0.27949877      -0.37594293      -0.71133916       0.49995953       0.81572257       0.00000000
H       12.91740613      12.73919929      11.41395849       0.29494353       0.29801030      -0.00179355      -0.61702058      -0.89490583      -0.55572405       0.00000000
H       11.23220603       9.83386002      10.80214721      -0.00828090      -0.43084773      -0.28878192       0.56862635       0.86395875       0.91364768       0.00000000
H       12.46087546      10.34812570      12.47720682       0.42510900      -0.07466244       0.10038951      -1.03980467       0.07668030      -1.33336693       0.00000000
H        9.89976968      10.80333104      12.89097816      -0.13432989      -0.10892975       0.31456104       1.42817194       1.42183511      -1.43746184       0.00000000
9
Lattice="23.296006118037088 0.0 0.0 0.0 22.649327160371357 0.0 0.0 0.0 22.71683509278982" Properties=species:S:1:pos:R:3:momenta:R:3:forces:R:3:magmoms:R:1 Energy:=T 4.1390592=T energy=-37.06535767543872 dipole="0.023891037857960696 -0.2669308656099972 0.0385020136082663" magmom=0.0 free_energy=-37.06535767543872 pbc="T T T"
C       12.42627282      11.80638536      10.74515415       0.26001008      -0.34643607      -1.94490774       1.98701639       1.99641129      -3.40583557       0.00000000
C       11.63816491      10.77675281      11.56234655       0.52291397      -1.48809566      -0.49674641      -0.38242468      -1.91424905       1.80811452       0.00000000
O       10.52510937      11.59965543      12.22756210       0.24632278       2.38812312       1.46700856      -1.60210620      -1.70399704       1.36975437       0.00000000
H       11.78208852      12.29384216       9.72510766       0.08503642      -0.09169565      -0.24525772       0.75003518      -0.62567867       1.94696473       0.00000000
H       13.36825449      11.22553027      10.12598954       0.19167685      -0.25128893      -0.33204721      -0.92880856       0.64880201       0.97179996       0.00000000
H       12.93103860      12.75264870      11.41320618       0.26096413       0.24675835      -0.03397719      -0.76668953      -1.19217701      -0.75485884       0.00000000
H       11.23248291       9.81390125      10.78916986       0.02067496      -0.38317223      -0.23936047       0.61051483       1.07748429       1.09889381       0.00000000
H       12.48034422      10.34457962      12.48050280       0.37013445      -0.06934647       0.03217046      -1.19887009       0.13979687      -1.44465078       0.00000000
H        9.89493343      10.79972480      12.90458481      -0.06187040      -0.03540585       0.24134247       1.52252493       1.57220693      -1.54414654       0.00000000
9
Lattice="23.296006118037088 0.0 0.0 0.0 22.649327160371357 0.0 0.0 0.0 22.71683509278982" Properties=species:S:1:pos:R:3:momenta:R:3:forces:R:3:magmoms:R:1 Energy:=T 4.1390592=T energy=-36.95838897763804 dipole="0.02639679080662142 -0.2669634171312704 0.03679110231747213" magmom=0.0 free_energy=-36.95838897763804 pbc="T T T"
C       12.42753553      11.80516924      10.73685935       0.36277353      -0.24970503      -2.10851252       2.19771914       1.94267254      -3.25648221       0.00000000
C       11.64026472      10.77047571      11.56049689       0.50493540      -1.57884705      -0.40937921      -0.34969911      -1.78133116       1.74965463       0.00000000
O       10.52574475      11.60685800      12.23216875       0.17193198       2.29801221       1.53300349      -1.42723745      -1.96550155       1.31769279       0.00000000
H       11.78712922      12.28862579       9.71548733       0.12084524      -0.12172129      -0.15014338       0.70817219      -0.59702616       1.92628361       0.00000000
H       13.37648237      11.21406284      10.11097373       0.14248417      -0.21658662      -0.28156721      -1.07441694       0.76434646       1.08384743       0.00000000
H       12.94283640      12.76324524      11.41064751       0.22059018       0.18304568      -0.07470218      -0.87741918      -1.40233204      -0.90354522       0.00000000
H       11.23422075       9.79652089      10.77882216       0.05131837      -0.32625475      -0.18212349       0.63734677       1.24031029       1.23191162       0.00000000
H       12.49694409      10.34136807      12.48034175       0.30813216      -0.06156055      -0.04045256      -1.32598866       0.17726139      -1.51270554       0.00000000
H        9.89374057      10.79988083      12.91449635       0.01368582       0.04386157       0.16440014       1.55427699       1.65572256      -1.58910063       0.00000000
9
Lattice="23.296006118037088 0.0 0.0 0.0 22.649327160371357 0.0 0.0 0.0 22.71683509278982" Properties=species:S:1:pos:R:3:momenta:R:3:forces:R:3:magmoms:R:1 Energy:=T 4.1390592=T energy=-36.905553577734466 dipole="0.02880546067049211 -0.2681848070447305 0.03545009569351412" magmom=0.0 free_energy=-36.905553577734466 pbc="T T T"
C       12.42923961      11.80434325      10.72791056       0.47375485      -0.15782910      -2.26220253       2.32166455       1.79870113      -3.00208574       0.00000000
C       11.64229431      10.76384087      11.55899861       0.48838529      -1.66065156      -0.32555549      -0.32425472      -1.54991385       1.66381709       0.00000000
O       10.52616496      11.61376423      12.23697407       0.10695229       2.19666873       1.59474302      -1.21886712      -2.16140980       1.19646559       0.00000000
H       11.79386457      12.28198074       9.71047658       0.15367444      -0.14943980      -0.05781196       0.62869915      -0.53172730       1.83363890       0.00000000
H       13.38213919      11.20442448      10.09855156       0.08757489      -0.17718841      -0.22661861      -1.16159995       0.84002814       1.15377104       0.00000000
H       12.95253453      12.77048602      11.40592665       0.17547186       0.11074681      -0.12144403      -0.95989008      -1.54182403      -0.99987757       0.00000000
H       11.23748375       9.78210858      10.77142241       0.08255584      -0.26283195      -0.11946361       0.63470625       1.34239461       1.31972565       0.00000000
H       12.51037088      10.33858071      12.47656081       0.24082145      -0.05245793      -0.11505884      -1.41503938       0.19341570      -1.52541304       0.00000000
H        9.89626708      10.80399899      12.92060518       0.08945935       0.12560816       0.08661619       1.53137455       1.67316396      -1.57841924       0.00000000
9
Lattice="23.296006118037088 0.0 0.0 0.0 22.649327160371357 0.0 0.0 0.0 22.71683509278982" Properties=species:S:1:pos:R:3:momenta:R:3:forces:R:3:magmoms:R:1 Energy:=T 4.1390592=T energy=-36.912621540599595 dipole="0.03139758382916719 -0.2706872859088497 0.03451551158721512" magmom=0.0 free_energy=-36.912621540599595 pbc="T T T"
C       12.43140994      11.80387850      10.71835887       0.58909517      -0.07519985      -2.40160163       2.37522653       1.56612900      -2.67452776       0.00000000
C       11.64425878      10.75689476      11.55783447       0.47313791      -1.72901701      -0.24673870      -0.29664959      -1.23406546       1.54576191       0.00000000
O       10.52640139      11.62034460      12.24195979       0.05277390       2.08698620       1.64934831      -0.98738669      -2.30508474       1.02717251       0.00000000
H       11.80210439      12.27406327       9.70985371       0.18151250      -0.17337407       0.02818004       0.50492324      -0.44292472       1.66812909       0.00000000
H       13.38501632      11.19679629      10.08889035       0.02973445      -0.13493849      -0.16914401      -1.19377977       0.88047400       1.18671062       0.00000000
H       12.95993567      12.77403723      11.39881310       0.12714953       0.03301805      -0.17179355      -1.00789295      -1.62344825      -1.05045672       0.00000000
H       11.24226560       9.77090861      10.76718074       0.11307543      -0.19553918      -0.05352916       0.60811323       1.39790286       1.36525847       0.00000000
H       12.52041151      10.33625618      12.46912957       0.17032802      -0.04295460      -0.18928495      -1.45559572       0.19357938      -1.49722428       0.00000000
H        9.90245815      10.81212102      12.92293687       0.16274345       0.20642023       0.01059588       1.45290227       1.61766702      -1.51728162       0.00000000
9
Lattice="23.296006118037088 0.0 0.0 0.0 22.649327160371357 0.0 0.0 0.0 22.71683509278982" Properties=species:S:1:pos:R:3:momenta:R:3:forces:R:3:magmoms:R:1 Energy:=T 4.1390592=T energy=-36.97622547834872 dipole="0.03403508293144536 -0.27437252066091006 0.03402783762993303" magmom=0.0 free_energy=-36.97622547834872 pbc="T T T"
C       12.43405728      11.80372826      10.70827007       0.70550515      -0.00612003      -2.52314872       2.36522339       1.24694115      -2.27511558       0.00000000
C       11.64616367      10.74970082      11.55698076       0.45936893      -1.78006107      -0.17431819      -0.26405102      -0.84455214       1.40334757       0.00000000
O       10.52648897      11.62657743      12.24710036       0.01106776       1.97186710       1.69492708      -0.71097156      -2.38279770       0.82888698       0.00000000
H       11.81155249      12.26508589       9.71322265       0.20225953      -0.19219841       0.10416141       0.33993762      -0.32364031       1.42598612       0.00000000
H       13.38503674      11.19127507      10.08206892      -0.02822968      -0.09150334      -0.11114682      -1.16663680       0.88829320       1.17505230       0.00000000
H       12.96492492      12.77370354      11.38918582       0.07734640      -0.04728278      -0.22363043      -1.02019150      -1.64656414      -1.06044560       0.00000000
H       11.24850265       9.76305380      10.76620613       0.14179097      -0.12650723       0.01373251       0.56124183       1.41321783       1.37377274       0.00000000
H       12.52696890      10.33439490      12.45811549       0.09904478      -0.03381014      -0.26092322      -1.44720231       0.17880145      -1.42003117       0.00000000
H        9.91212600      10.82411410      12.92163772       0.23103500       0.28289666      -0.06094088       1.32806762       1.49660790      -1.39583979       0.00000000
9
Lattice="23.296006118037088 0.0 0.0 0.0 22.649327160371357 0.0 0.0 0.0 22.71683509278982" Properties=species:S:1:pos:R:3:momenta:R:3:forces:R:3:magmoms:R:1 Energy:=T 4.1390592=T energy=-37.08357738484191 dipole="0.036784335209923344 -0.279306315916641 0.03406394342954215" magmom=0.0 free_energy=-37.08357738484191 pbc="T T T"
C       12.43717962      11.80382845      10.69772435       0.82039101       0.04544440      -2.62193394       2.31316108       0.85286653      -1.74761826       0.00000000
C       11.64801553      10.74233727      11.55640888       0.44688083      -1.81055466      -0.10948389      -0.24448972      -0.39720821       1.23683646       0.00000000
O       10.52646935      11.63245101      12.25236591      -0.01529923       1.85484279       1.72937368      -0.36274539      -2.38266911       0.57384845       0.00000000
H       11.82181405      12.25533405       9.72000396       0.21384118      -0.20424170       0.16620191       0.13169073      -0.16678700       1.10042851       0.00000000
H       13.38226541      11.18787953      10.07805938      -0.08357737      -0.04850259      -0.05477979      -1.08723305       0.86278445       1.12032728       0.00000000
H       12.96747287      12.76942964      11.37702091       0.02783725      -0.12713612      -0.27501301      -0.99592108      -1.60522521      -1.03195687       0.00000000
H       11.25608275       9.75858081      10.76851894       0.16772920      -0.05795471       0.08033598       0.49501526       1.37837954       1.33845535       0.00000000