9
Lattice="23.296006118037088 0.0 0.0 0.0 22.649327160371357 0.0 0.0 0.0 22.71683509278982" Properties=species:S:1:pos:R:3:momenta:R:3:forces:R:3:magmoms:R:1 Energy:=T 4.1390592=T energy=-36.85216033926561 dipole="-0.011345417949741723 -0.30289076977286356 0.08798436017351492" magmom=0.0 free_energy=-36.85216033926561 pbc="T T T"
C       12.42207036      11.83368987      10.79464830      -0.09861489      -0.60602122      -0.01345882      -0.30518862      -0.78019647       0.37406193       0.00000000
C       11.61254836      10.82499477      11.59896323      -0.31706877       0.51796215       0.53867091      -0.37445579       0.89943513       0.01835284       0.00000000
O       10.50748564      11.52654319      12.18832537       0.80897408       0.36544324       0.36521631       0.15092820       4.64737456      -1.38093836       0.00000000
H       11.79213304      12.29264105      10.00000000      -0.03658136      -0.12772477      -0.22621169      -1.49683377       1.06915683      -1.83007284       0.00000000
H       13.29600612      11.34193956      10.31171856      -0.14459988      -0.12384537      -0.15026840       2.07942804      -1.15880629      -1.15712720       0.00000000
H       12.79464938      12.64932716      11.45377233      -0.22881157       0.28991893       0.12595947       0.84461095       1.90791225       1.55647578       0.00000000
H       11.25544912      10.00000000      10.92561081       0.08804685      -0.14897353       0.12929824      -0.53026829      -2.19946677      -1.85986317       0.00000000
H       12.25979758      10.35173888      12.38565610      -0.12799540       0.44050019       0.27208402       1.94214056      -1.31861207       1.73006543       0.00000000
H       10.00000000      10.86900330      12.71683509       0.16384851      -0.39515112      -0.05201449      -2.38549544      -3.08283403       2.47946924       0.00000000
9
Lattice="23.296006118037088 0.0 0.0 0.0 22.649327160371357 0.0 0.0 0.0 22.71683509278982" Properties=species:S:1:pos:R:3:momenta:R:3:forces:R:3:magmoms:R:1 Energy:=T 4.1390592=T energy=-36.85216033926561 dipole="-0.011345417949741723 -0.30289076977286356 0.08798436017351492" magmom=0.0 free_energy=-36.85216033926561 pbc="T T T"
C       12.42207036      11.83368987      10.79464830      -0.79893820      -0.67845920       0.79268935      -0.30518862      -0.78019647       0.37406193       0.00000000
C       11.61254836      10.82499477      11.59896323       0.24965948      -1.01423993       0.74081725      -0.37445579       0.89943513       0.01835284       0.00000000
O       10.50748564      11.52654319      12.18832537      -0.43373257      -0.48680311       0.90215310       0.15092820       4.64737456      -1.38093836       0.00000000
H       11.79213304      12.29264105      10.00000000      -0.24993510      -0.48164874       0.04999745      -1.49683377       1.06915683      -1.83007284       0.00000000
H       13.29600612      11.34193956      10.31171856      -0.28221767       0.25605721      -0.24318878       2.07942804      -1.15880629      -1.15712720       0.00000000
H       12.79464938      12.64932716      11.45377233       0.04910123      -0.13835006       0.16530692       0.84461095       1.90791225       1.55647578       0.00000000
H       11.25544912      10.00000000      10.92561081      -0.01052060       0.19632405      -0.14613899      -0.53026829      -2.19946677      -1.85986317       0.00000000
H       12.25979758      10.35173888      12.38565610       0.40887362       0.09014005       0.02206646       1.94214056      -1.31861207       1.73006543       0.00000000
H       10.00000000      10.86900330      12.71683509       0.03044833       0.19140037       0.02047258      -2.38549544      -3.08283403       2.47946924       0.00000000
9
Lattice="23.296006118037088 0.0 0.0 0.0 22.649327160371357 0.0 0.0 0.0 22.71683509278982" Properties=species:S:1:pos:R:3:momenta:R:3:forces:R:3:magmoms:R:1 Energy:=T 4.1390592=T energy=-36.85216033926561 dipole="-0.011345417949741723 -0.30289076977286356 0.08798436017351492" magmom=0.0 free_energy=-36.85216033926561 pbc="T T T"
C       12.42207036      11.83368987      10.79464830      -0.22405941      -0.44579549       0.23846949      -0.30518862      -0.78019647       0.37406193       0.00000000
C       11.61254836      10.82499477      11.59896323      -0.56455959       0.12015408      -0.39465526      -0.37445579       0.89943513       0.01835284       0.00000000
O       10.50748564      11.52654319      12.18832537      -1.29098653      -0.58193844       0.13353450       0.15092820       4.64737456      -1.38093836       0.00000000
H       11.79213304      12.29264105      10.00000000      -0.05130137      -0.13469330      -0.07620307      -1.49683377       1.06915683      -1.83007284       0.00000000
H       13.29600612      11.34193956      10.31171856       0.32129024       0.04516481       0.22289168       2.07942804      -1.15880629      -1.15712720       0.00000000
H       12.79464938      12.64932716      11.45377233       0.10041456      -0.17134723      -0.13963983       0.84461095       1.90791225       1.55647578       0.00000000
H       11.25544912      10.00000000      10.92561081      -0.10545685       0.07934718      -0.04195175      -0.53026829      -2.19946677      -1.85986317       0.00000000
H       12.25979758      10.35173888      12.38565610       0.38231440       0.13944565      -0.02302502       1.94214056      -1.31861207       1.73006543       0.00000000
H       10.00000000      10.86900330      12.71683509      -0.00478757      -0.08917383      -0.18145730      -2.38549544      -3.08283403       2.47946924       0.00000000
9
Lattice="23.296006118037088 0.0 0.0 0.0 22.649327160371357 0.0 0.0 0.0 22.71683509278982" Properties=species:S:1:pos:R:3:momenta:R:3:forces:R:3:magmoms:R:1 Energy:=T 4.1390592=T energy=-36.85216033926561 dipole="-0.011345417949741723 -0.30289076977286356 0.08798436017351492" magmom=0.0 free_energy=-36.85216033926561 pbc="T T T"
C       12.42207036      11.83368987      10.79464830       0.65298016      -0.45024173      -1.08429540      -0.30518862      -0.78019647       0.37406193       0.00000000
C       11.61254836      10.82499477      11.59896323       0.52108416      -0.08058112       0.08767059      -0.37445579       0.89943513       0.01835284       0.00000000
O       10.50748564      11.52654319      12.18832537       0.03529841       0.37024471      -0.39891804       0.15092820       4.64737456      -1.38093836       0.00000000
H       11.79213304      12.29264105      10.00000000      -0.09748876      -0.16862757      -0.14442887      -1.49683377       1.06915683      -1.83007284       0.00000000
H       13.29600612      11.34193956      10.31171856       0.08163320      -0.01127715       0.04197221       2.07942804      -1.15880629      -1.15712720       0.00000000
H       12.79464938      12.64932716      11.45377233       0.07250653       0.22578284      -0.02452608       0.84461095       1.90791225       1.55647578       0.00000000
H       11.25544912      10.00000000      10.92561081      -0.07952374       0.08259557       0.10680566      -0.53026829      -2.19946677      -1.85986317       0.00000000
H       12.25979758      10.35173888      12.38565610       0.01432025       0.32343764      -0.07552702       1.94214056      -1.31861207       1.73006543       0.00000000
H       10.00000000      10.86900330      12.71683509       0.03477865       0.06194453       0.40170628      -2.38549544      -3.08283403       2.47946924       0.00000000
9
Lattice="23.296006118037088 0.0 0.0 0.0 22.649327160371357 0.0 0.0 0.0 22.71683509278982" Properties=species:S:1:pos:R:3:momenta:R:3:forces:R:3:magmoms:R:1 Energy:=T 4.1390592=T energy=-36.85216033926561 dipole="-0.011345417949741723 -0.30289076977286356 0.08798436017351492" magmom=0.0 free_energy=-36.85216033926561 pbc="T T T"
C       12.42207036      11.83368987      10.79464830      -0.26072991      -0.66200652      -0.19820942      -0.30518862      -0.78019647       0.37406193       0.00000000
C       11.61254836      10.82499477      11.59896323       0.12477968       0.15162243       0.10050785      -0.37445579       0.89943513       0.01835284       0.00000000
O       10.50748564      11.52654319      12.18832537       0.44673647       0.54322545      -1.17380116       0.15092820       4.64737456      -1.38093836       0.00000000
H       11.79213304      12.29264105      10.00000000      -0.09100115       0.01434762      -0.04103981      -1.49683377       1.06915683      -1.83007284       0.00000000
H       13.29600612      11.34193956      10.31171856      -0.09899612       0.02115757       0.29909020       2.07942804      -1.15880629      -1.15712720       0.00000000
H       12.79464938      12.64932716      11.45377233       0.10884380       0.00839370       0.04760958       0.84461095       1.90791225       1.55647578       0.00000000
H       11.25544912      10.00000000      10.92561081       0.05615611       0.00905993       0.26617738      -0.53026829      -2.19946677      -1.85986317       0.00000000
H       12.25979758      10.35173888      12.38565610       0.05865578       0.14083707       0.13007751       1.94214056      -1.31861207       1.73006543       0.00000000
H       10.00000000      10.86900330      12.71683509      -0.10772583       0.11038786       0.27019082      -2.38549544      -3.08283403       2.47946924       0.00000000
9
Lattice="23.296006118037088 0.0 0.0 0.0 22.649327160371357 0.0 0.0 0.0 22.71683509278982" Properties=species:S:1:pos:R:3:momenta:R:3:forces:R:3:magmoms:R:1 Energy:=T 4.1390592=T energy=-36.85216033926561 dipole="-0.011345417949741723 -0.30289076977286356 0.08798436017351492" magmom=0.0 free_energy=-36.85216033926561 pbc="T T T"
C       12.42207036      11.83368987      10.79464830       0.25305209       0.06452403      -0.45208226      -0.30518862      -0.78019647       0.37406193       0.00000000
C       11.61254836      10.82499477      11.59896323      -0.28305839      -0.73195890       0.18087494      -0.37445579       0.89943513       0.01835284       0.00000000
O       10.50748564      11.52654319      12.18832537       0.21917336      -0.08410642      -1.29509022       0.15092820       4.64737456      -1.38093836       0.00000000
H       11.79213304      12.29264105      10.00000000       0.13646794      -0.00602570       0.03421330      -1.49683377       1.06915683      -1.83007284       0.00000000
H       13.29600612      11.34193956      10.31171856      -0.19336606       0.15841379      -0.01926188       2.07942804      -1.15880629      -1.15712720       0.00000000
H       12.79464938      12.64932716      11.45377233      -0.14141393      -0.01882725      -0.09122241       0.84461095       1.90791225       1.55647578       0.00000000
H       11.25544912      10.00000000      10.92561081      -0.41300026      -0.00841688       0.14341537      -0.53026829      -2.19946677      -1.85986317       0.00000000
H       12.25979758      10.35173888      12.38565610      -0.14487067       0.15608376      -0.27830257       1.94214056      -1.31861207       1.73006543       0.00000000
H       10.00000000      10.86900330      12.71683509      -0.15457466       0.00063722       0.12380958      -2.38549544      -3.08283403       2.47946924       0.00000000
9
Lattice="23.296006118037088 0.0 0.0 0.0 22.649327160371357 0.0 0.0 0.0 22.71683509278982" Properties=species:S:1:pos:R:3:momenta:R:3:forces:R:3:magmoms:R:1 Energy:=T 4.1390592=T energy=-36.85216033926561 dipole="-0.011345417949741723 -0.30289076977286356 0.08798436017351492" magmom=0.0 free_energy=-36.85216033926561 pbc="T T T"
C       12.42207036      11.83368987      10.79464830      -0.37012596      -0.65300703      -0.14776049      -0.30518862      -0.78019647       0.37406193       0.00000000
C       11.61254836      10.82499477      11.59896323       0.23384382      -0.56031013      -0.58867046      -0.37445579       0.89943513       0.01835284       0.00000000
O       10.50748564      11.52654319      12.18832537      -0.54875109       0.05107446       0.54016415       0.15092820       4.64737456      -1.38093836       0.00000000
H       11.79213304      12.29264105      10.00000000      -0.38623226      -0.31742362       0.34164949      -1.49683377       1.06915683      -1.83007284       0.00000000
H       13.29600612      11.34193956      10.31171856       0.08432374      -0.17825444       0.15478753       2.07942804      -1.15880629      -1.15712720       0.00000000
H       12.79464938      12.64932716      11.45377233      -0.07169620      -0.05422220       0.06812121       0.84461095       1.90791225       1.55647578       0.00000000
H       11.25544912      10.00000000      10.92561081       0.08553720      -0.08262041      -0.22803757      -0.53026829      -2.19946677      -1.85986317       0.00000000
H       12.25979758      10.35173888      12.38565610       0.05809017      -0.12114374       0.06852260       1.94214056      -1.31861207       1.73006543       0.00000000
H       10.00000000      10.86900330      12.71683509       0.26391339       0.08182866       0.27467935      -2.38549544      -3.08283403       2.47946924       0.00000000
9
Lattice="23.296006118037088 0.0 0.0 0.0 22.649327160371357 0.0 0.0 0.0 22.71683509278982" Properties=species:S:1:pos:R:3:momenta:R:3:forces:R:3:magmoms:R:1 Energy:=T 4.1390592=T energy=-36.85216033926561 dipole="-0.011345417949741723 -0.30289076977286356 0.08798436017351492" magmom=0.0 free_energy=-36.85216033926561 pbc="T T T"
C       12.42207036      11.83368987      10.79464830      -0.08325774      -0.81672100      -0.77681351      -0.30518862      -0.78019647       0.37406193       0.00000000
C       11.61254836      10.82499477      11.59896323      -0.53363229      -0.80014395      -0.67908846      -0.37445579       0.89943513       0.01835284       0.00000000
O       10.50748564      11.52654319      12.18832537      -0.41117239       0.00150319      -0.27524158       0.15092820       4.64737456      -1.38093836       0.00000000
H       11.79213304      12.29264105      10.00000000       0.36114444      -0.37878870       0.16644908      -1.49683377       1.06915683      -1.83007284       0.00000000
H       13.29600612      11.34193956      10.31171856      -0.20926435       0.26587867       0.15355755       2.07942804      -1.15880629      -1.15712720       0.00000000
H       12.79464938      12.64932716      11.45377233      -0.21102923      -0.23125367       0.12423689       0.84461095       1.90791225       1.55647578       0.00000000
H       11.25544912      10.00000000      10.92561081      -0.16893858      -0.09630256       0.04556812      -0.53026829      -2.19946677      -1.85986317       0.00000000
H       12.25979758      10.35173888      12.38565610      -0.27905440      -0.02609954       0.05691778       1.94214056      -1.31861207       1.73006543       0.00000000
H       10.00000000      10.86900330      12.71683509       0.06360115      -0.35578221       0.03013772      -2.38549544      -3.08283403       2.47946924       0.00000000
9
Lattice="23.296006118037088 0.0 0.0 0.0 22.649327160371357 0.0 0.0 0.0 22.71683509278982" Properties=species:S:1:pos:R:3:momenta:R:3:forces:R:3:magmoms:R:1 Energy:=T 4.1390592=T energy=-36.85216033926561 dipole="-0.011345417949741723 -0.30289076977286356 0.08798436017351492" magmom=0.0 free_energy=-36.85216033926561 pbc="T T T"
C       12.42207036      11.83368987      10.79464830       1.26383562      -0.61383607       0.18352939      -0.30518862      -0.78019647       0.37406193       0.00000000
C       11.61254836      10.82499477      11.59896323       1.54647262      -0.07595586       0.87230294      -0.37445579       0.89943513       0.01835284       0.00000000
O       10.50748564      11.52654319      12.18832537       0.27766924      -0.14041877      -0.30041533       0.15092820       4.64737456      -1.38093836       0.00000000
H       11.79213304      12.29264105      10.00000000      -0.34557169       0.34537462      -0.06371390      -1.49683377       1.06915683      -1.83007284       0.00000000
H       13.29600612      11.34193956      10.31171856       0.39008632      -0.10280695       0.13617686       2.07942804      -1.15880629      -1.15712720       0.00000000
H       12.79464938      12.64932716      11.45377233       0.16396917       0.17293535      -0.11973176       0.84461095       1.90791225       1.55647578       0.00000000
H       11.25544912      10.00000000      10.92561081       0.13081083      -0.02866509      -0.22291507      -0.53026829      -2.19946677      -1.85986317       0.00000000
H       12.25979758      10.35173888      12.38565610       0.09245283       0.13557418      -0.15195885       1.94214056      -1.31861207       1.73006543       0.00000000
H       10.00000000      10.86900330      12.71683509      -0.13677880      -0.06417010       0.04971636      -2.38549544      -3.08283403       2.47946924       0.00000000
9
Lattice="23.296006118037088 0.0 0.0 0.0 22.649327160371357 0.0 0.0 0.0 22.71683509278982" Properties=species:S:1:pos:R:3:momenta:R:3:forces:R:3:magmoms:R:1 Energy:=T 4.1390592=T energy=-36.85216033926561 dipole="-0.011345417949741723 -0.30289076977286356 0.08798436017351492" magmom=0.0 free_energy=-36.85216033926561 pbc="T T T"
C       12.42207036      11.83368987      10.79464830       0.37192354       0.22935691       0.35592833      -0.30518862      -0.78019647       0.37406193       0.00000000
C       11.61254836      10.82499477      11.59896323      -0.93770222      -1.01964763      -0.26380149      -0.37445579       0.89943513       0.01835284       0.00000000
O       10.50748564      11.52654319      12.18832537      -0.52068575      -0.91190822      -0.37246330       0.15092820       4.64737456      -1.38093836       0.00000000
H       11.79213304      12.29264105      10.00000000      -0.13950876       0.27537628      -0.10773042      -1.49683377       1.06915683      -1.83007284       0.00000000
H       13.29600612      11.34193956      10.31171856       0.17557481       0.20294141      -0.06639256       2.07942804      -1.15880629      -1.15712720       0.00000000
H       12.79464938      12.64932716      11.45377233       0.22728767      -0.25438679       0.01706192       0.84461095       1.90791225       1.55647578       0.00000000
H       11.25544912      10.00000000      10.92561081      -0.03629140       0.10760741       0.10560108      -0.53026829      -2.19946677      -1.85986317       0.00000000
H       12.25979758      10.35173888      12.38565610      -0.08145006       0.19947656      -0.13894484       1.94214056      -1.31861207       1.73006543       0.00000000
H       10.00000000      10.86900330      12.71683509      -0.02568682      -0.25787458      -0.18926440      -2.38549544      -3.08283403       2.47946924       0.00000000
9
Lattice="23.296006118037088 0.0 0.0 0.0 22.649327160371357 0.0 0.0 0.0 22.71683509278982" Properties=species:S:1:pos:R:3:momenta:R:3:forces:R:3:magmoms:R:1 Energy:=T 4.1390592=T energy=-36.86598109920817 dipole="-0.01190178086992541 -0.30242134948092264 0.08507896758929505" magmom=0.0 free_energy=-36.86598109920817 pbc="T T T"
C       12.41877282      11.83083728      10.79792720      -0.81598334      -0.70923907       0.81391458      -0.38892413      -0.47322241       0.49027235       0.00000000
C       11.61353162      10.82093781      11.60199431       0.23399267      -0.97249147       0.74893792      -0.26352817       0.80064677       0.31233720       0.00000000
O       10.50616555      11.52539915      12.19099068      -0.41929491      -0.25739325       0.82948591       0.43700250       4.69465921      -1.57821649       0.00000000
H       11.77816432      12.27045259      10.00024639      -0.32343775      -0.42711816      -0.03832665      -1.49634271       1.15143869      -1.76666310       0.00000000
H       13.28474346      11.35302910      10.29848501      -0.17608176       0.19643563      -0.30174022       2.24264086      -1.26910531      -1.22720583       0.00000000
H       12.79805234      12.64486904      11.46368900       0.08821216      -0.04753889       0.23738222       0.74806554       1.79010255       1.37857627       0.00000000
H       11.25430206      10.00693398      10.91626507      -0.03630323       0.08747640      -0.23596693      -0.51965266      -2.23302955      -1.79811231       0.00000000
H       12.28204317      10.35455313      12.38880127       0.49770004       0.02793851       0.10083390       1.67505073      -1.21436032       1.47750405       0.00000000
H        9.99862932      10.87464044      12.72079926      -0.08953543       0.03606664       0.14551128      -2.50048587      -3.24266951       2.61235940       0.00000000
9
Lattice="23.296006118037088 0.0 0.0 0.0 22.649327160371357 0.0 0.0 0.0 22.71683509278982" Properties=species:S:1:pos:R:3:momenta:R:3:forces:R:3:magmoms:R:1 Energy:=T 4.1390592=T energy=-36.92430466379214 dipole="-0.007399181090099497 -0.30281804398305023 0.08445576567047959" magmom=0.0 free_energy=-36.92430466379214 pbc="T T T"
C       12.42112352      11.83178865      10.79566097      -0.23534001      -0.48708429       0.24465173      -0.15418045      -0.90116676      -0.12230832       0.00000000
C       11.61020225      10.82557640      11.59735131      -0.57674926       0.15765905      -0.38514394      -0.12193207       0.62784328       0.36896730       0.00000000
O       10.50353396      11.52510710      12.18863119      -1.28198480      -0.35495378       0.06663680       0.21564072       4.59590022      -1.34327138       0.00000000
H       11.78784249      12.28735754       9.99409743      -0.12051589      -0.08391771      -0.16287067      -1.32172138       0.99852771      -1.69920748       0.00000000
H       13.31414859      11.34275365      10.32119417       0.41456196      -0.00814457       0.16978223       1.71878508      -1.01205933      -1.00559701       0.00000000
H       12.80055252      12.64326130      11.44883087       0.14200607      -0.07382880      -0.06033892       0.84907974       2.06323580       1.67281768       0.00000000
H       11.24967641      10.00123444      10.92134145      -0.13033485      -0.02761539      -0.13134541      -0.48281405      -2.15626567      -1.78042738       0.00000000
H       12.28074911      10.35695548      12.38660425       0.46964317       0.07882895       0.05378696       1.61406374      -1.14982278       1.39787369       0.00000000
H        9.99691250      10.86096983      12.71096050      -0.12177013      -0.24035642      -0.06085507      -2.37827115      -3.07362681       2.43169745       0.00000000
9
Lattice="23.296006118037088 0.0 0.0 0.0 22.649327160371357 0.0 0.0 0.0 22.71683509278982" Properties=species:S:1:pos:R:3:momenta:R:3:forces:R:3:magmoms:R:1 Energy:=T 4.1390592=T energy=-36.92836279728495 dipole="-0.011469740980278455 -0.2978970695217619 0.0945452534925931" magmom=0.0 free_energy=-36.92836279728495 pbc="T T T"
C       12.42097358      11.83090455      10.79387537      -0.28165290      -0.68589096      -0.17694667      -0.54683790      -0.19242598       0.49180059       0.00000000
C       11.61302099      10.82570507      11.59937605       0.11089547       0.19324588       0.10956663      -0.19093721       0.79555559       0.35053916       0.00000000
O       10.50886840      11.52856111      12.18461795       0.43982043       0.75915278      -1.22922833      -0.43256338       4.14562311      -0.87616818       0.00000000
H       11.78590817      12.29461936       9.99581072      -0.15985838       0.06385449      -0.12607033      -1.30717195       0.94686344      -1.63254190       0.00000000
H       13.29367069      11.34158392      10.32490684       0.00949878      -0.03933656       0.23807714       2.33870374      -1.30463712      -1.32744818       0.00000000
H       12.80096322      12.65201894      11.45795436       0.14658650       0.09564435       0.11873394       0.69234776       1.64511069       1.33985198       0.00000000
H       11.25755079       9.99780978      10.93635464       0.02921535      -0.10272891       0.17237975      -0.56681385      -2.35280106      -1.95976635       0.00000000
H       12.26497927      10.35702327      12.39406397       0.15081199       0.07854103       0.21101466       1.81064667      -1.21820883       1.56585929       0.00000000
H        9.99189697      10.87069321      12.73296646      -0.21228185      -0.02635726       0.37997433      -1.87223736      -2.48570377       1.99113764       0.00000000
9
Lattice="23.296006118037088 0.0 0.0 0.0 22.649327160371357 0.0 0.0 0.0 22.71683509278982" Properties=species:S:1:pos:R:3:momenta:R:3:forces:R:3:magmoms:R:1 Energy:=T 4.1390592=T energy=-36.84011613289146 dipole="-0.01381370901185869 -0.2983967916175931 0.09047087558578591" magmom=0.0 free_energy=-36.84011613289146 pbc="T T T"
C       12.42307445      11.83387536      10.79283727       0.22964244       0.02487916      -0.42851103      -0.64809959      -0.83422302       0.58580659       0.00000000
C       11.61135332      10.82209207      11.59970468      -0.30757107      -0.68419272       0.16647404      -0.62375030       1.04570027      -0.60478663       0.00000000
O       10.50816983      11.52663534      12.18424562       0.21288216       0.13366577      -1.34861251      -0.40711859       4.22074957      -0.79859725       0.00000000
H       11.79699130      12.29362670       9.99947733       0.06090779       0.04729595      -0.05739948      -1.58012854       1.10220864      -1.90058504       0.00000000
H       13.28907264      11.34827155      10.30939555      -0.08401165       0.09777010      -0.07942933       2.37370489      -1.31072750      -1.29301310       0.00000000
H       12.78876974      12.65069263      11.45118995      -0.09917337       0.07578529      -0.01334553       0.87551009       1.94490158       1.61482799       0.00000000
H       11.23469177       9.99695825      10.93037322      -0.43618208      -0.11393655       0.05384451      -0.41374211      -2.09750772      -1.78764372       0.00000000
H       12.25506271      10.35776615      12.37416619      -0.04150364       0.08502238      -0.18371516       2.26717402      -1.57515076       2.12172538       0.00000000
H        9.98961432      10.86534575      12.72583422      -0.26001259      -0.13645181       0.23407845      -1.90815017      -2.49970858       2.01090226       0.00000000
9
Lattice="23.296006118037088 0.0 0.0 0.0 22.649327160371357 0.0 0.0 0.0 22.71683509278982" Properties=species:S:1:pos:R:3:momenta:R:3:forces:R:3:magmoms:R:1 Energy:=T 4.1390592=T energy=-36.980330795531074 dipole="-0.011228507960996743 -0.3022942988131074 0.08411274618086492" magmom=0.0 free_energy=-36.980330795531074 pbc="T T T"
C       12.42163647      11.83113348      10.79463082      -0.11273263      -0.62988356       0.00389373      -0.26971443      -0.19152607       0.33256904       0.00000000
C       11.61121425      10.82720305      11.60116772      -0.33158135       0.55538096       0.53500257      -0.21652583       0.62433473      -0.16773504       0.00000000
O       10.50998039      11.52801536      12.18934240       0.79924772       0.58227506       0.31046214      -0.54700546       4.18245588      -0.84876236       0.00000000
H       11.78855970      12.28769707       9.98678846      -0.10516408      -0.07915667      -0.30885143      -1.29599345       0.90863440      -1.53518442       0.00000000
H       13.29144870      11.33451885      10.30301243      -0.04331676      -0.17906106      -0.20480310       2.04502559      -1.08968849      -1.06363606       0.00000000
H       12.78451141      12.66573589      11.46177185      -0.19122405       0.37275824       0.19297140       0.68602895       1.46547175       1.17238542       0.00000000
H       11.25910463       9.99010981      10.92968538       0.06406373      -0.25338086       0.04221035      -0.44637274      -2.05221102      -1.68653172       0.00000000
H       12.25588493      10.37162396      12.40098305      -0.03222358       0.37505444       0.35641705       1.95788155      -1.34647125       1.70414642       0.00000000
H       10.00512907      10.84606149      12.71726743       0.05654941      -0.53281555       0.05889098      -1.98394111      -2.52314003       2.03682600       0.00000000
9
Lattice="23.296006118037088 0.0 0.0 0.0 22.649327160371357 0.0 0.0 0.0 22.71683509278982" Properties=species:S:1:pos:R:3:momenta:R:3:forces:R:3:magmoms:R:1 Energy:=T 4.1390592=T energy=-36.81573702804041 dipole="-0.007535351875442061 -0.3042978917196991 0.08829179403598313" magmom=0.0 free_energy=-36.81573702804041 pbc="T T T"
C       12.42169927      11.83027192      10.79150943      -0.09959914      -0.85823291      -0.73476625      -0.36026613      -0.91025220       1.33818719       0.00000000
C       11.61032871      10.82181326      11.59618825      -0.55109639      -0.75865953      -0.68107917      -0.33671794       0.78989451      -0.09941839       0.00000000
O       10.50623480      11.52689814      12.18737633      -0.41682863       0.21602141      -0.33069038      -0.38126155       4.08824152      -0.87704902       0.00000000
H       11.80793837      12.27546431      10.00592034       0.27492040      -0.31647893       0.06112300      -2.01438382       1.46822303      -2.45901820       0.00000000
H       13.28829801      11.35350764      10.31781595      -0.09345170       0.20175525       0.09064969       2.63669739      -1.45242899      -1.40460811       0.00000000
H       12.78537783      12.64034244      11.46168792      -0.17011692      -0.13708528       0.20020345       0.82142105       1.92681513       1.53703633       0.00000000
H       11.24658335       9.99267613      10.92560574      -0.19374856      -0.20181232      -0.04387010      -0.48004399      -2.09710398      -1.78224193       0.00000000