9
Lattice="23.296006118037088 0.0 0.0 0.0 22.649327160371357 0.0 0.0 0.0 22.71683509278982" Properties=species:S:1:pos:R:3:momenta:R:3:forces:R:3:magmoms:R:1 Energy:=T 4.1390592=T energy=-36.88191279728856 dipole="-0.009199219354010564 -0.30040881268229064 0.09023232177260364" magmom=0.0 free_energy=-36.88191279728856 pbc="T T T"
C       12.42090853      11.83386898      10.79558632      -0.30917933       0.03529224       0.23310085      -1.01998778      -0.34655567       0.15070212       0.00000000
C       11.61198983      10.83038949      11.59475436      -0.14970127       1.32714078      -1.02528419      -0.53387042       0.31875346       0.16372125       0.00000000
O       10.50689189      11.53019427      12.18851591      -0.19530860       1.29706064       0.03083791      -0.07701568       4.38578909      -1.27190696       0.00000000
H       11.79227926      12.29229883       9.98626499      -0.02825815       0.01591230      -0.31933395      -1.27293641       0.93400669      -1.52455116       0.00000000
H       13.27828880      11.34411937      10.31948129      -0.29883954       0.00820620       0.12333316       2.63833814      -1.48766252      -1.46551671       0.00000000
H       12.80087940      12.64420088      11.44824323       0.14993147      -0.05435004      -0.07270360       0.89862218       2.07117177       1.66043754       0.00000000
H       11.25563649       9.99170951      10.91652433      -0.00563327      -0.21588000      -0.22516832      -0.38599617      -1.86209202      -1.57505686       0.00000000
H       12.25793329      10.35826245      12.39375288       0.00585123       0.10383990       0.20363871       1.79640161      -1.22366243       1.52549541       0.00000000
H        9.99890161      10.87455210      12.73183112      -0.07454768       0.04449461       0.36347391      -2.11772772      -2.82563069       2.26809611       0.00000000
9
Lattice="23.296006118037088 0.0 0.0 0.0 22.649327160371357 0.0 0.0 0.0 22.71683509278982" Properties=species:S:1:pos:R:3:momenta:R:3:forces:R:3:magmoms:R:1 Energy:=T 4.1390592=T energy=-37.0061549404848 dipole="-0.0068773850716520694 -0.2959538656359722 0.09193439988182639" magmom=0.0 free_energy=-37.0061549404848 pbc="T T T"
C       12.41954186      11.83397849      10.79655461      -0.37030611       0.03248316       0.23240491      -1.46921824       0.23216431      -0.17904230       0.00000000
C       11.61132409      10.83584823      11.59057837      -0.17811110       1.32299880      -1.01255121      -0.62303515      -0.48742335       0.35479161       0.00000000
O       10.50628652      11.53450658      12.18851470      -0.21175765       1.49774349      -0.02098155      -0.59282288       3.78642245      -0.83828628       0.00000000
H       11.78937935      12.29419167       9.96888175      -0.08312734       0.05705974      -0.38419324      -0.96144777       0.74160031      -1.11665061       0.00000000
H       13.26688499      11.34273923      10.32373705      -0.16180284      -0.06962488       0.04718992       2.94207359      -1.68177668      -1.63519008       0.00000000
H       12.80925981      12.64403089      11.44668755       0.19315257       0.04658080       0.00733835       0.86142833       2.03893603       1.59903252       0.00000000
H       11.25490018       9.97896306      10.90366875      -0.02010147      -0.29610681      -0.29289292      -0.20317813      -1.40490575      -1.18282576       0.00000000
H       12.26036777      10.36185781      12.40550015       0.08750046       0.04818003       0.26994073       1.52852019      -1.04292029       1.17445674       0.00000000
H        9.99273552      10.87333918      12.75225467      -0.16504655      -0.07926567       0.46264103      -1.56756923      -2.21413800       1.77018958       0.00000000
9
Lattice="23.296006118037088 0.0 0.0 0.0 22.649327160371357 0.0 0.0 0.0 22.71683509278982" Properties=species:S:1:pos:R:3:momenta:R:3:forces:R:3:magmoms:R:1 Energy:=T 4.1390592=T energy=-37.17292273439153 dipole="-0.004112646982152457 -0.28995448069939017 0.09313588383859474" magmom=0.0 free_energy=-37.17292273439153 pbc="T T T"
C       12.41788014      11.83413463      10.79748695      -0.44407473       0.05921592       0.21324097      -1.53478917       0.85644775      -0.60135219       0.00000000
C       11.61053322      10.84120909      11.58647363      -0.20955290       1.27606400      -0.98885337      -0.65733852      -1.42385642       0.61023227       0.00000000
O       10.50559179      11.53938977      12.18838710      -0.25682118       1.66510056      -0.04697477      -1.24225496       3.02869574      -0.22020991       0.00000000
H       11.78417872      12.29785915       9.94882637      -0.12154147       0.08788891      -0.42753023      -0.60285350       0.51382596      -0.64811921       0.00000000
H       13.26252154      11.33733461      10.32407982      -0.01758776      -0.15242051      -0.03302608       2.93065633      -1.68982853      -1.63136750       0.00000000
H       12.81970161      12.64874006      11.44895834       0.23243855       0.14116823       0.08080381       0.73837632       1.81285561       1.39262977       0.00000000
H       11.25367766       9.96285468      10.88798268      -0.02526810      -0.35215071      -0.34015749      -0.00721770      -0.87731537      -0.74188307       0.00000000
H       12.26645998      10.36295747      12.42005789       0.15422867       0.00260260       0.31638037       1.18878773      -0.81308480       0.71665947       0.00000000
H        9.98281826      10.86682786      12.77691427      -0.22523756      -0.16886642       0.53238620      -0.88353041      -1.43458561       1.06997469       0.00000000
9
Lattice="23.296006118037088 0.0 0.0 0.0 22.649327160371357 0.0 0.0 0.0 22.71683509278982" Properties=species:S:1:pos:R:3:momenta:R:3:forces:R:3:magmoms:R:1 Energy:=T 4.1390592=T energy=-37.322576490108126 dipole="-0.0008259034755095043 -0.2830688081674065 0.09395309063624353" magmom=0.0 free_energy=-37.322576490108126 pbc="T T T"
C       12.41591018      11.83446276      10.79829852      -0.51129355       0.11554560       0.17166907      -1.20249702       1.43741070      -1.09153943       0.00000000
C       11.60961035      10.84628399      11.58249145      -0.24166720       1.18293836      -0.95147150      -0.65042087      -2.36840791       0.91203294       0.00000000
O       10.50470975      11.54472958      12.18822629      -0.33352709       1.79519720      -0.04169891      -1.88136498       2.26910277       0.43505354       0.00000000
H       11.77753546      12.30275621       9.92722005      -0.14266979       0.10761336      -0.44760790      -0.25753416       0.28939344      -0.16948394       0.00000000
H       13.26517111      11.32788625      10.32051875       0.11822713      -0.23097250      -0.10866937       2.60000056      -1.50896740      -1.44898035       0.00000000
H       12.83191033      12.65778736      11.45456167       0.26398351       0.22118792       0.14123149       0.54619835       1.44570817       1.06810742       0.00000000
H       11.25243787       9.94464690      10.87052130      -0.02109971      -0.38249551      -0.36645628       0.17696292      -0.35838618      -0.32905686       0.00000000
H       12.27539695      10.36211143      12.43633059       0.20373539      -0.03127443       0.33964326       0.82722600      -0.56645626       0.23065270       0.00000000
H        9.97078672      10.85688360      12.80413430      -0.25224303      -0.22014520       0.56718978      -0.21618679      -0.65359022       0.34729742       0.00000000
9
Lattice="23.296006118037088 0.0 0.0 0.0 22.649327160371357 0.0 0.0 0.0 22.71683509278982" Properties=species:S:1:pos:R:3:momenta:R:3:forces:R:3:magmoms:R:1 Energy:=T 4.1390592=T energy=-37.41335459346461 dipole="0.002836428938134992 -0.27601505153728684 0.09456448741451062" magmom=0.0 free_energy=-37.41335459346461 pbc="T T T"
C       12.41369873      11.83507957      10.79889087      -0.55457108       0.19802583       0.10534136      -0.55985149       1.92135135      -1.60945922       0.00000000
C       11.60855685      10.85088325      11.57869242      -0.27284923       1.04588413      -0.89935642      -0.61937467      -3.21271771       1.21019853       0.00000000
O       10.50354407      11.55041150      12.18813108      -0.43884520       1.88994718      -0.00572889      -2.40740149       1.58930822       1.02971857       0.00000000
H       11.77027592      12.30834579       9.90520816      -0.14792117       0.11692188      -0.44537251       0.04368721       0.08966836       0.26051354       0.00000000
H       13.27404246      11.31482695      10.31349028       0.23205764      -0.29671669      -0.17195519       2.03540823      -1.16826900      -1.12814639       0.00000000
H       12.84542610      12.67029424      11.46272097       0.28498956       0.28093403       0.18415502       0.30921034       0.98727423       0.67982567       0.00000000
H       11.25162155       9.92558150      10.85227248      -0.00874427      -0.38877903      -0.37340989       0.32617572       0.10250858       0.04589163       0.00000000
H       12.28631346      10.35990986      12.45315523       0.23589788      -0.05324428       0.34006973       0.48249545      -0.32820061      -0.21328607       0.00000000
H        9.95823784      10.84537529      12.83218542      -0.24886886      -0.23572508       0.56822141       0.35358958       0.01914611      -0.30528752       0.00000000
9
Lattice="23.296006118037088 0.0 0.0 0.0 22.649327160371357 0.0 0.0 0.0 22.71683509278982" Properties=species:S:1:pos:R:3:momenta:R:3:forces:R:3:magmoms:R:1 Energy:=T 4.1390592=T energy=-37.4255586907733 dipole="0.006632004541621529 -0.26943552764849815 0.09512513434907732" magmom=0.0 free_energy=-37.4255586907733 pbc="T T T"
C       12.41137485      11.83608223      10.79916001      -0.56221602       0.30145467       0.01405832       0.24853378       2.29047991      -2.10777096       0.00000000
C       11.60737896      10.85483732      11.57513644      -0.30235782       0.87092362      -0.83326570      -0.58227454      -3.91202795       1.48114945       0.00000000
O       10.50201543      11.55633304      12.18819112      -0.56638618       1.95376074       0.05663089      -2.78632523       1.00930871       1.50969751       0.00000000
H       11.76312093      12.31414994       9.88381967      -0.13927135       0.11711612      -0.42324837       0.30855108      -0.08175844       0.64042613       0.00000000
H       13.28778452      11.29897199      10.30376216       0.31505423      -0.34383916      -0.21777617       1.34438066      -0.75065343      -0.73777656       0.00000000
H       12.85968181      12.68516365      11.47250709       0.29380329       0.31765695       0.20788313       0.04970273       0.50815725       0.28643097       0.00000000
H       11.25158576       9.90676141      10.83413349       0.00994237      -0.37410378      -0.36332010       0.43478212       0.49509729       0.36498495       0.00000000
H       12.29838457      10.35692291      12.46946949       0.25156693      -0.06432464       0.31958412       0.15558020      -0.12301406      -0.62092935       0.00000000
H        9.94653510      10.83391281      12.85950598      -0.22069723      -0.22171201       0.54010749       0.79361618       0.55149450      -0.83956787       0.00000000
9
Lattice="23.296006118037088 0.0 0.0 0.0 22.649327160371357 0.0 0.0 0.0 22.71683509278982" Properties=species:S:1:pos:R:3:momenta:R:3:forces:R:3:magmoms:R:1 Energy:=T 4.1390592=T energy=-37.36326959839482 dipole="0.010339290708768724 -0.2638322656078739 0.09573616949174953" magmom=0.0 free_energy=-37.36326959839482 pbc="T T T"
C       12.40910089      11.83754489      10.79900584      -0.52951683       0.42026022      -0.10012552       1.08304353       2.54752273      -2.54202566       0.00000000
C       11.60608414      10.85800574      11.57187791      -0.32996863       0.66560246      -0.75472280      -0.54209349      -4.44906505       1.71727611       0.00000000
O       10.50006671      11.56240675      12.18847877      -0.70915050       1.99185336       0.13901576      -3.02732669       0.54190003       1.84518108       0.00000000
H       11.75670429      12.31975844       9.86396372      -0.11908582       0.10980397      -0.38424695       0.51344448      -0.21600726       0.94779048       0.00000000
H       13.30474366      11.28132073      10.29226856       0.36371914      -0.37001422      -0.24392411       0.63735304      -0.31524778      -0.32702042       0.00000000
H       12.87405646      12.70124907      11.48297864       0.29018693       0.33136057       0.21278008      -0.19696822       0.04988199      -0.08701732       0.00000000
H       11.25259040       9.88912607      10.81686790       0.03301133      -0.34195517      -0.33888246       0.50463274       0.81405930       0.63016527       0.00000000
H       12.31082799      10.35364159      12.48429787       0.25217791      -0.06585238       0.28076202      -0.13070006       0.06080142      -0.95998537       0.00000000
H        9.93673148      10.82377004      12.88481747      -0.17403052      -0.18486090       0.48909538       1.10674682       0.94915685      -1.23774855       0.00000000
9
Lattice="23.296006118037088 0.0 0.0 0.0 22.649327160371357 0.0 0.0 0.0 22.71683509278982" Properties=species:S:1:pos:R:3:momenta:R:3:forces:R:3:magmoms:R:1 Energy:=T 4.1390592=T energy=-37.24896605936575 dipole="0.013867360361520796 -0.2595457389254176 0.09643127615606836" magmom=0.0 free_energy=-37.24896605936575 pbc="T T T"
C       12.40704442      11.83951915      10.79834117      -0.45768680       0.54915129      -0.23327000       1.84202049       2.70118212      -2.87988697       0.00000000
C       11.60468045      10.86028067      11.56896425      -0.35555760       0.43813091      -0.66562610      -0.49994126      -4.81403671       1.91092186       0.00000000
O       10.49766156      11.56856216      12.18904462      -0.86054717       2.00899899       0.23439637      -3.13785213       0.15630471       2.03891046       0.00000000
H       11.75151633      12.32485005       9.84637582      -0.08993052       0.09669524      -0.33196961       0.67381840      -0.31780664       1.18104839       0.00000000
H       13.32322799      11.26291508      10.27999240       0.37928360      -0.37510440      -0.25100483      -0.00353682       0.10796535       0.03867943       0.00000000
H       12.88795977      12.71745386      11.49324195       0.27525227       0.32431725       0.20060805      -0.41120130      -0.33670044      -0.40865245       0.00000000
H       11.25480263       9.87343878      10.80111028       0.05859648      -0.29601107      -0.30267756       0.53724596       1.05687729       0.84417160       0.00000000
H       12.32295865      10.35050577      12.49682901       0.24027035      -0.05944125       0.22734189      -0.35419987       0.20027259      -1.21539027       0.00000000
H        9.92957629      10.81589860      12.90716704      -0.11456361      -0.13129678       0.42123387       1.31486594       1.23208250      -1.52570950       0.00000000
9
Lattice="23.296006118037088 0.0 0.0 0.0 22.649327160371357 0.0 0.0 0.0 22.71683509278982" Properties=species:S:1:pos:R:3:momenta:R:3:forces:R:3:magmoms:R:1 Energy:=T 4.1390592=T energy=-37.114389042724724 dipole="0.017233634521523246 -0.25676048915712557 0.09720461033948219" magmom=0.0 free_energy=-37.114389042724724 pbc="T T T"
C       12.40535789      11.84203589      10.79709814      -0.35183628       0.68321830      -0.38023165       2.46842678       2.75829793      -3.10468885       0.00000000
C       11.60317636      10.86158881      11.56643436      -0.37895162       0.19699513      -0.56828325      -0.45271037      -5.00550014       2.05307567       0.00000000
O       10.49478332      11.57474113      12.18991786      -1.01450732       2.00882640       0.33673198      -3.13171637      -0.16333314       2.12840225       0.00000000
H       11.74794080      12.32918114       9.83161415      -0.05420313       0.07940391      -0.27005624       0.78107288      -0.38633144       1.34018945       0.00000000
H       13.34170385      11.24476779      10.26780880       0.36603450      -0.36101686      -0.24162074      -0.53599332       0.46570756       0.34345954       0.00000000
H       12.90087907      12.73285293      11.50252736       0.25039547       0.29969466       0.17400278      -0.60101804      -0.66598099      -0.67476798       0.00000000
H       11.25830048       9.86028057      10.78737277       0.08517280      -0.23919012      -0.25705810       0.54499588       1.25698658       1.01354487       0.00000000
H       12.33424170      10.34784920      12.50645174       0.21854705      -0.04697266       0.16313693      -0.53041660       0.30747392      -1.39916547       0.00000000
H        9.92556755      10.81097552      12.92586561      -0.04727530      -0.06623155       0.34145096       1.42524997       1.41750537      -1.72321205       0.00000000
9
Lattice="23.296006118037088 0.0 0.0 0.0 22.649327160371357 0.0 0.0 0.0 22.71683509278982" Properties=species:S:1:pos:R:3:momenta:R:3:forces:R:3:magmoms:R:1 Energy:=T 4.1390592=T energy=-36.99092140722941 dipole="0.020531688720658574 -0.25556445948180484 0.09800324572844696" magmom=0.0 free_energy=-36.99092140722941 pbc="T T T"
C       12.40416708      11.84510657      10.79523161      -0.21900772       0.81781370      -0.53540396       2.94062113       2.72269872      -3.21424124       0.00000000
C       11.60158135      10.86189171      11.56431678      -0.39986812      -0.04944781      -0.46536015      -0.39905187      -5.03015465       2.13816135       0.00000000
O       10.49143292      11.58089548      12.19111201      -1.16591022       1.99428796       0.44190875      -3.03371611      -0.42870155       2.15460886       0.00000000
H       11.74623438      12.33258775       9.82005955      -0.01424603       0.05952423      -0.20188862       0.84606106      -0.42320930       1.43573412       0.00000000
H       13.35889709      11.22773494      10.25644710       0.32923576      -0.33097876      -0.21884946      -0.96252608       0.75750468       0.58383310       0.00000000
H       12.91236015      12.74665832      11.51019806       0.21708010       0.26055319       0.13571042      -0.75565120      -0.92793900      -0.88457423       0.00000000
H       11.26310249       9.85013033      10.77606065       0.11171330      -0.17418507      -0.20465177       0.53578678       1.39015043       1.12054711       0.00000000
H       12.34425548      10.34592841      12.51272627       0.18874928      -0.02983644       0.09129320      -0.68300895       0.39034757      -1.52645642       0.00000000
H        9.92496943      10.80944451      12.94044054       0.02386019       0.00610826       0.25405200       1.47153130       1.52831828      -1.83585026       0.00000000
9
Lattice="23.296006118037088 0.0 0.0 0.0 22.649327160371357 0.0 0.0 0.0 22.71683509278982" Properties=species:S:1:pos:R:3:momenta:R:3:forces:R:3:magmoms:R:1 Energy:=T 4.1390592=T energy=-36.90549920407884 dipole="0.02391137444044292 -0.2559666395091573 0.09878834649952357" magmom=0.0 free_energy=-36.90549920407884 pbc="T T T"
C       12.40356682      11.84872404      10.79271956      -0.06672355       0.94842487      -0.69324231       3.26069807       2.59605240      -3.21325581       0.00000000
C       11.59990621      10.86118442      11.56262861      -0.41792515      -0.29330056      -0.35968940      -0.33626703      -4.90002277       2.16496541       0.00000000
O       10.48762513      11.58698520      12.19263099      -1.31087303       1.96819791       0.54711222      -2.86946244      -0.63373793       2.12948927       0.00000000
H       11.74655256      12.33498162       9.81194064       0.02794301       0.03850977      -0.13047145       0.87196213      -0.43254188       1.47251720       0.00000000
H       13.37378701      11.21251478      10.24648250       0.27428063      -0.28819106      -0.18594299      -1.27535790       0.98489698       0.75618484       0.00000000
H       12.92203296      12.75824316      11.51575199       0.17723673       0.21034159       0.08844220      -0.86685158      -1.11677901      -1.04028311       0.00000000
H       11.26918664       9.84330670      10.76742999       0.13735921      -0.10394941      -0.14801895       0.50856648       1.46998778       1.18565578       0.00000000
H       12.35263483      10.34494171      12.51534802       0.15249970      -0.00939018       0.01456933      -0.79314720       0.44226556      -1.59789480       0.00000000
H        9.92789267      10.81157075      12.95062230       0.09592123       0.08232001       0.16286956       1.46293990       1.57517824      -1.87728290       0.00000000
9
Lattice="23.296006118037088 0.0 0.0 0.0 22.649327160371357 0.0 0.0 0.0 22.71683509278982" Properties=species:S:1:pos:R:3:momenta:R:3:forces:R:3:magmoms:R:1 Energy:=T 4.1390592=T energy=-36.87635875105034 dipole="0.027543832029342664 -0.25792650356152025 0.09954539952480577" magmom=0.0 free_energy=-36.87635875105034 pbc="T T T"
C       12.40362140      11.85286287      10.78956221       0.09799324       1.07054253      -0.84857592       3.44690270       2.37682560      -3.11224309       0.00000000
C       11.59816353      10.85949308      11.56137521      -0.43266321      -0.52720233      -0.25405461      -0.26389656      -4.62493011       2.13669672       0.00000000
O       10.48338473      11.59297937      12.19447104      -1.44613877       1.93313993       0.64928866      -2.63883223      -0.79389378       2.03134185       0.00000000
H       11.74895735      12.33634042       9.80734545       0.07040325       0.01768199      -0.05850704       0.85710465      -0.41560741       1.45801914       0.00000000
H       13.38562502      11.19965147      10.23832744       0.20635503      -0.23550513      -0.14591734      -1.49070995       1.16058061       0.87374071       0.00000000
H       12.92963140      12.76715555      11.51881652       0.13304574       0.15262253       0.03480867      -0.93269456      -1.23365764      -1.14378281       0.00000000
H       11.27648779       9.84000073      10.76163659       0.16115323      -0.03109577      -0.08889265       0.46037419       1.49676003       1.22208688       0.00000000
H       12.35911618      10.34501336      12.51414602       0.11166547       0.01292222      -0.06447467      -0.86970529       0.46634036      -1.62093676       0.00000000
H        9.93431670      10.81746638      12.95631175       0.16613884       0.15919878       0.07129894       1.39646327       1.55548083      -1.85165793       0.00000000
9
Lattice="23.296006118037088 0.0 0.0 0.0 22.649327160371357 0.0 0.0 0.0 22.71683509278982" Properties=species:S:1:pos:R:3:momenta:R:3:forces:R:3:magmoms:R:1 Energy:=T 4.1390592=T energy=-36.91036145343742 dipole="0.03158412544656388 -0.2613882035976746 0.10028166097994272" magmom=0.0 free_energy=-36.91036145343742 pbc="T T T"
C       12.40436822      11.85747903      10.78577984       0.26904305       1.17963384      -0.99664963       3.51859183       2.06559326      -2.91761777       0.00000000
C       11.59636785      10.85687292      11.56055093      -0.44365041      -0.74420302      -0.15101554      -0.18352440      -4.21177723       2.05926276       0.00000000
O       10.47874647      11.59885384      12.19661734      -1.56818852       1.89107147       0.74444686      -2.33128029      -0.91921892       1.84369269       0.00000000
H       11.75341318      12.33670468       9.80623928       0.11118213      -0.00164731       0.01116544       0.80349385      -0.37152102       1.37918539       0.00000000
H       13.39389577      11.18956543      10.23226324       0.12978604      -0.17543325      -0.10110892      -1.62733418       1.28566803       0.95094867       0.00000000
H       12.93499791      12.77311582      11.51914400       0.08645132       0.09058290      -0.02261148      -0.96472464      -1.29272171      -1.19448193       0.00000000
H       11.28489060       9.84027650      10.75876763       0.18207077       0.04190722      -0.02890276       0.39143049       1.47606925       1.22082270       0.00000000
H       12.36351633      10.34620095      12.50906513       0.06788624       0.03579448      -0.14334699      -0.91307376       0.46506454      -1.59090378       0.00000000
H        9.94408246      10.82708425      12.95757020       0.23168520       0.23354509      -0.01716913       1.27271721       1.47205107      -1.75094085       0.00000000
9
Lattice="23.296006118037088 0.0 0.0 0.0 22.649327160371357 0.0 0.0 0.0 22.71683509278982" Properties=species:S:1:pos:R:3:momenta:R:3:forces:R:3:magmoms:R:1 Energy:=T 4.1390592=T energy=-37.00338083017009 dipole="0.036143401494847315 -0.26627101947230414 0.10103195777465367" magmom=0.0 free_energy=-37.00338083017009 pbc="T T T"
C       12.40582166      11.86251001      10.78141153       0.44132313       1.27157456      -1.13296782       3.49700157       1.67841883      -2.63353474       0.00000000
C       11.59453532      10.85340692      11.56014020      -0.45057549      -0.93769502      -0.05286278      -0.09847865      -3.66760828       1.93771607       0.00000000
O       10.47375673      11.60458973      12.19904162      -1.67320319       1.84429287       0.82836674      -1.94512953      -0.98570033       1.57369446       0.00000000
H       11.75979175      12.33617990       9.80843349       0.14844511      -0.01813870       0.07541819       0.71393017      -0.30004140       1.23731652       0.00000000
H       13.39827232      11.18255597      10.22847464       0.04823618      -0.11017994      -0.05351241      -1.69354076       1.37157869       0.98727758       0.00000000
H       12.93805585      12.77598262      11.51661309       0.03904964       0.02702458      -0.08144429      -0.96556788      -1.29550161      -1.20130916       0.00000000
H       11.29423010       9.84408448      10.75882009       0.19908538       0.11271103       0.02992239       0.30143863       1.40720506       1.17465635       0.00000000
H       12.36573151      10.34850144      12.50017723       0.02294843       0.05807672      -0.21946207      -0.91688443       0.44231323      -1.50865618       0.00000000
H        9.95689382      10.84022473      12.95463866       0.28983189       0.30210393      -0.09856647       1.09513336       1.31980365      -1.56372351       0.00000000
9
Lattice="23.296006118037088 0.0 0.0 0.0 22.649327160371357 0.0 0.0 0.0 22.71683509278982" Properties=species:S:1:pos:R:3:momenta:R:3:forces:R:3:magmoms:R:1 Energy:=T 4.1390592=T energy=-37.14139210523782 dipole="0.041282431720261276 -0.2724524894584679 0.10185224406337784" magmom=0.0 free_energy=-37.14139210523782 pbc="T T T"
C       12.40797740      11.86787807      10.77651434       0.61057607       1.34288985      -1.25323099       3.39532013       1.22568416      -2.26382451       0.00000000
C       11.59268301      10.84920437      11.56011861      -0.45355240      -1.10169603       0.03835600      -0.02274723      -3.01084449       1.77689711       0.00000000
O       10.46847372      11.61017701      12.20170316      -1.75833466       1.79713045       0.89668328      -1.52159634      -0.93484878       1.20829313       0.00000000
H       11.76787876      12.33493712       9.81358859       0.18031800      -0.03042777       0.13122007       0.58399837      -0.20039477       1.03504891       0.00000000
H       13.39859625      11.17882868      10.22704859      -0.03496400      -0.04163855      -0.00520758      -1.69453912       1.41956519       0.97979281       0.00000000
H       12.93880320      12.77574929      11.51120747      -0.00763735      -0.03533916      -0.13938960      -0.93562049      -1.24407613      -1.15834084       0.00000000
H       11.30429095       9.85125989      10.76168349       0.21121237       0.17855688       0.08549487       0.19239700       1.27417109       1.08836730       0.00000000
H       12.36575260      10.35186037      12.48767913      -0.02105031       0.07868442      -0.29044412      -0.87483333       0.39687394      -1.38187654       0.00000000
H        9.97232581      10.85652349      12.94796516       0.33785967       0.36092690      -0.16847285       0.86065503       1.07558679      -1.28300577       0.00000000
9
Lattice="23.296006118037088 0.0 0.0 0.0 22.649327160371357 0.0 0.0 0.0 22.71683509278982" Properties=species:S:1:pos:R:3:momenta:R:3:forces:R:3:magmoms:R:1 Energy:=T 4.1390592=T energy=-37.30105823381369 dipole="0.04699938798251875 -0.27976288444292297 0.1028060326738955" magmom=0.0 free_energy=-37.30105823381369 pbc="T T T"
C       12.41081500      11.87349227      10.77116250       0.77349850       1.39046174      -1.35379266       3.23921093       0.71153932      -1.83125022       0.00000000
C       11.59082613      10.84439716      11.56045388      -0.45332883      -1.23108144       0.12096852       0.03185142      -2.25799131       1.58725171       0.00000000
O       10.46296131      11.61562334      12.20454687      -1.82134266       1.75512409       0.94448560      -1.04421672      -0.77573533       0.73831397       0.00000000
H       11.77736327      12.33321479       9.82122054       0.20477970      -0.03714301       0.17562940       0.41213130      -0.07306322       0.77338869       0.00000000
H       13.39486517      11.17849840      10.22796718      -0.11660603       0.02821314       0.04181896      -1.63008934       1.42493708       0.93522317       0.00000000
H       12.93731161      12.77253891      11.50302995      -0.05195503      -0.09385457      -0.19400351      -0.86908498      -1.13878956      -1.06564816       0.00000000
H       11.31481219       9.86148438      10.76715134       0.21773464       0.23638810       0.13573897       0.07320287       1.08083309       0.95767427       0.00000000