9
Lattice="23.296006118037088 0.0 0.0 0.0 22.649327160371357 0.0 0.0 0.0 22.71683509278982" Properties=species:S:1:pos:R:3:momenta:R:3:forces:R:3:magmoms:R:1 Energy:=T 4.1390592=T energy=-36.98173098564551 dipole="-0.009108289442996197 -0.301798351783187 0.08537007055956732" magmom=0.0 free_energy=-36.98173098564551 pbc="T T T"
C       12.42555857      11.82836979      10.79325313       0.85051791      -1.31406740      -0.33267990      -0.10373234      -0.52984167       0.34679700       0.00000000
C       11.61344340      10.82369985      11.59542964       0.20427061      -0.30579554      -0.87108868      -0.59526020       0.44322232      -0.28215544       0.00000000
O       10.50599169      11.52363200      12.18745003      -0.49098858      -0.84605685      -0.30815386      -0.17624383       4.16504600      -0.93695760       0.00000000
H       11.79238430      12.28716013       9.99791564      -0.03012519      -0.08682953      -0.08661623      -1.43676031       1.04494350      -1.78513226       0.00000000
H       13.31191361      11.34949874      10.30716582       0.37292269       0.12883103      -0.11891475       1.89108675      -1.07151756      -1.03738298       0.00000000
H       12.79027274      12.65299422      11.45856527      -0.07178579       0.11706668       0.13239266       0.73462089       1.70235538       1.38547789       0.00000000
H       11.24634206       9.98749808      10.91955530      -0.19636181      -0.30144181      -0.16385849      -0.38480105      -1.82652896      -1.61160462       0.00000000
H       12.26109066      10.33626605      12.37004561       0.07492605      -0.35040711      -0.27578950       1.97041420      -1.33748074       1.81614620       0.00000000
H        9.99454034      10.84964217      12.71772909      -0.16031780      -0.46099910       0.06837322      -1.96542259      -2.59127429       2.03711222       0.00000000
9
Lattice="23.296006118037088 0.0 0.0 0.0 22.649327160371357 0.0 0.0 0.0 22.71683509278982" Properties=species:S:1:pos:R:3:momenta:R:3:forces:R:3:magmoms:R:1 Energy:=T 4.1390592=T energy=-37.18782556408522 dipole="-0.006999167344054336 -0.29884624972301516 0.08257428172947857" magmom=0.0 free_energy=-37.18782556408522 pbc="T T T"
C       12.42902596      11.82294331      10.79192761       0.85306140      -1.33008821      -0.31966413       0.20730815      -0.12255811       0.18323155       0.00000000
C       11.61421890      10.82249395      11.59183940       0.17224287      -0.30149329      -0.88958979      -0.70897418      -0.26802600      -0.47124734       0.00000000
O       10.50447118      11.52134877      12.18643343      -0.51294259      -0.66021614      -0.33811997      -0.71776799       3.40276341      -0.28332315       0.00000000
H       11.78919742      12.28417975       9.99155948      -0.09593830      -0.03830361      -0.16905206      -1.24328278       0.93113003      -1.57182116       0.00000000
H       13.33234645      11.35449380      10.30013063       0.45725087       0.08059261      -0.16475822       1.54292759      -0.89284833      -0.82945605       0.00000000
H       12.78765404      12.66073500      11.46667364      -0.03961274       0.19216191       0.19333158       0.57553095       1.35567435       1.09607820       0.00000000
H       11.23631418       9.97062529      10.90964323      -0.21033375      -0.37922076      -0.23451944      -0.18416478      -1.34078731      -1.26585226       0.00000000
H       12.26709893      10.31759263      12.35878114       0.16825058      -0.41379675      -0.18937068       1.82994943      -1.24387368       1.70300264       0.00000000
H        9.98437745      10.82408015      12.72349788      -0.24127422      -0.56904686       0.15238222      -1.33128662      -1.80864875       1.38390405       0.00000000
9
Lattice="23.296006118037088 0.0 0.0 0.0 22.649327160371357 0.0 0.0 0.0 22.71683509278982" Properties=species:S:1:pos:R:3:momenta:R:3:forces:R:3:magmoms:R:1 Energy:=T 4.1390592=T energy=-37.393905994184315 dipole="-0.005054138563135909 -0.2945538428119669 0.07972477613506397" magmom=0.0 free_energy=-37.393905994184315 pbc="T T T"
C       12.43253498      11.81749222      10.79063889       0.87190888      -1.32333051      -0.31761494       0.56019940       0.39774537      -0.09978451       0.00000000
C       11.61485202      10.82123421      11.58815451       0.13744358      -0.33591542      -0.91405761      -0.70812310      -1.13371281      -0.52513177       0.00000000
O       10.50284245      11.51957856      12.18537412      -0.56271599      -0.51441721      -0.33501296      -1.30910523       2.53446401       0.40984700       0.00000000
H       11.78303537      12.28342755       9.98144196      -0.14978487       0.00282920      -0.23780573      -0.94945834       0.74388114      -1.22796763       0.00000000
H       13.35647150      11.35735228      10.29111056       0.52133209       0.04242326      -0.19865543       1.06658904      -0.66148457      -0.55090665       0.00000000
H       12.78641258      12.67171989      11.47740492      -0.01598657       0.24806313       0.23810543       0.38657439       0.92073636       0.72720375       0.00000000
H       11.22584559       9.95054401      10.89670200      -0.21413108      -0.43153684      -0.28692728       0.02952982      -0.78962904      -0.86830082       0.00000000
H       12.27748624      10.29594264      12.35159193       0.25109249      -0.46965116      -0.11230159       1.54354074      -1.03063091       1.43540675       0.00000000
H        9.97102881      10.79419005      12.73257834      -0.28991762      -0.63637917       0.20304626      -0.64957107      -0.93325935       0.67923834       0.00000000
9
Lattice="23.296006118037088 0.0 0.0 0.0 22.649327160371357 0.0 0.0 0.0 22.71683509278982" Properties=species:S:1:pos:R:3:momenta:R:3:forces:R:3:magmoms:R:1 Energy:=T 4.1390592=T energy=-37.538576537180035 dipole="-0.003394403953712607 -0.28955755825218366 0.07692759831711872" magmom=0.0 free_energy=-37.538576537180035 pbc="T T T"
C       12.43615650      11.81212101      10.78933013       0.90764563      -1.28944433      -0.33130332       0.89507339       0.98216835      -0.45763395       0.00000000
C       11.61534292      10.81974680      11.58436416       0.10497936      -0.41404819      -0.93845200      -0.61388569      -2.04801185      -0.46825697       0.00000000
O       10.50101634      11.51819047      12.18437660      -0.63975551      -0.41052401      -0.29985385      -1.82810012       1.69627725       1.02190312       0.00000000
H       11.77460127      12.28445544       9.96838593      -0.18768815       0.03378010      -0.28839525      -0.59403985       0.51650204      -0.83213985       0.00000000
H       13.38314889      11.35862784      10.28077218       0.56083509       0.01544880      -0.21843093       0.54205320      -0.43697001      -0.25439176       0.00000000
H       12.78609619      12.68490810      11.48987639      -0.00174041       0.28192987       0.26462801       0.19355799       0.45838601       0.35284927       0.00000000
H       11.21544767       9.92857316      10.88168293      -0.20796297      -0.45795537      -0.32033055       0.22164833      -0.28618712      -0.49194791       0.00000000
H       12.29156723      10.27182636      12.34783764       0.31740950      -0.51308873      -0.05063833       1.15702220      -0.73823500       1.07564602       0.00000000
H        9.95612574      10.76206668      12.74328421      -0.30682040      -0.66193029       0.22082024      -0.03874436      -0.10723405       0.04455426       0.00000000
9
Lattice="23.296006118037088 0.0 0.0 0.0 22.649327160371357 0.0 0.0 0.0 22.71683509278982" Properties=species:S:1:pos:R:3:momenta:R:3:forces:R:3:magmoms:R:1 Energy:=T 4.1390592=T energy=-37.591579540054354 dipole="-0.0021511049730395452 -0.28446550997350284 0.0742486077621304" magmom=0.0 free_energy=-37.591579540054354 pbc="T T T"
C       12.43995778      11.80694704      10.78792947       0.95907712      -1.22736162      -0.36318499       1.19932085       1.54596536      -0.84065216       0.00000000
C       11.61571055      10.81784809      11.58047977       0.07843613      -0.53600599      -0.95826728      -0.46700822      -2.91835617      -0.33866116       0.00000000
O       10.49891462      11.51705812      12.18353315      -0.73899036      -0.34529094      -0.23799636      -2.21294352       0.96014553       1.49705906       0.00000000
H       11.76474565      12.28671933       9.95333860      -0.20761640       0.05329525      -0.31888025      -0.21747905       0.27819447      -0.40927097       0.00000000
H       13.41112341      11.35885773      10.26982504       0.57452602      -0.00066103      -0.22414040       0.01546900      -0.21905510       0.02189047       0.00000000
H       12.78624298      12.69919322      11.50319222       0.00368782       0.29329550       0.27301801       0.02749071       0.00444527      -0.01119171       0.00000000
H       11.20558015       9.90591746      10.86548663      -0.19262881      -0.46045704      -0.33610004       0.40278960       0.18431399      -0.15021773       0.00000000
H       12.30841696      10.24594349      12.34665736       0.36332700      -0.54074764      -0.00787374       0.71283103      -0.38809154       0.66581449       0.00000000
H        9.94112997      10.72968669      12.75409669      -0.29616817      -0.65030131       0.21057092       0.47252480       0.58078992      -0.46192761       0.00000000
9
Lattice="23.296006118037088 0.0 0.0 0.0 22.649327160371357 0.0 0.0 0.0 22.71683509278982" Properties=species:S:1:pos:R:3:momenta:R:3:forces:R:3:magmoms:R:1 Energy:=T 4.1390592=T energy=-37.55423495961888 dipole="-0.0013745083589006169 -0.2797966828558201 0.07168151630946595" magmom=0.0 free_energy=-37.55423495961888 pbc="T T T"
C       12.44399992      11.80208354      10.78635997       1.02409262      -1.13928927      -0.41305050       1.44824209       2.04051868      -1.18997220       0.00000000
C       11.61598438      10.81536330      11.57652737       0.05950972      -0.69777641      -0.97088293      -0.30371341      -3.66926284      -0.17507394       0.00000000
O       10.49647926      11.51607053      12.18291540      -0.85354061      -0.31322760      -0.15636167      -2.45177423       0.34553833       1.82727030       0.00000000
H       11.75436960      12.28964893       9.93731189      -0.20966041       0.06137675      -0.32921440       0.13424286       0.05090043      -0.01155661       0.00000000
H       13.43913494      11.35856342      10.25893029       0.56374132      -0.00655957      -0.21669434      -0.45464383      -0.02114513       0.28132800       0.00000000
H       12.78645556      12.71348897      11.51648128       0.00163544       0.28395030       0.26417952      -0.11106783      -0.38500079      -0.34872947       0.00000000
H       11.19667650       9.88370283      10.84893086      -0.16915612      -0.44190155      -0.33646634       0.55306577       0.57130330       0.13530125       0.00000000
H       12.32697249      10.21913193      12.34707037       0.38789969      -0.55134512       0.01507979       0.28781855      -0.04345940       0.26889980       0.00000000
H        9.92726493      10.69869652      12.76380379      -0.26372795      -0.60846133       0.17867942       0.84850649       1.12301873      -0.83675858       0.00000000
9
Lattice="23.296006118037088 0.0 0.0 0.0 22.649327160371357 0.0 0.0 0.0 22.71683509278982" Properties=species:S:1:pos:R:3:momenta:R:3:forces:R:3:magmoms:R:1 Energy:=T 4.1390592=T energy=-37.44947492976141 dipole="-0.0010104573414358433 -0.27592312086008314 0.06916068582998959" magmom=0.0 free_energy=-37.44947492976141 pbc="T T T"
C       12.44833290      11.79762984      10.78455150       1.09905726      -1.02885155      -0.47848977       1.60446938       2.45672868      -1.47484740       0.00000000
C       11.61619722      10.81214162      11.57253981       0.04844771      -0.89229305      -0.97533073      -0.14675429      -4.25184806      -0.00604936       0.00000000
O       10.49367425      11.51513504      12.18257316      -0.97664766      -0.30860123      -0.06171935      -2.56139410      -0.15714316       2.02675643       0.00000000
H       11.74431480      12.29270033       9.92125753      -0.19522641       0.05908482      -0.32130092       0.45353906      -0.14423256       0.33380936       0.00000000
H       13.46605852      11.35821851      10.24870875       0.53148933      -0.00401093      -0.19764838      -0.85872236       0.12493086       0.49426223       0.00000000
H       12.78640235      12.72686343      11.52893582      -0.00630736       0.25701798       0.24029911      -0.21237908      -0.71173761      -0.62372883       0.00000000
H       11.18909633       9.86285532      10.83269887      -0.13910012      -0.40590982      -0.32374446       0.67087547       0.89435271       0.38275935       0.00000000
H       12.34621676      10.19221636      12.34812685       0.39252132      -0.54557716       0.01999064      -0.09961628       0.27834253      -0.06892031       0.00000000
H        9.91543037      10.67039373      12.77150853      -0.21596174      -0.54334432       0.13118852       1.09663034       1.52867748      -1.09716703       0.00000000
9
Lattice="23.296006118037088 0.0 0.0 0.0 22.649327160371357 0.0 0.0 0.0 22.71683509278982" Properties=species:S:1:pos:R:3:momenta:R:3:forces:R:3:magmoms:R:1 Energy:=T 4.1390592=T energy=-37.309252748152666 dipole="-0.0009234806761328223 -0.2730854635138598 0.06657051528800793" magmom=0.0 free_energy=-37.309252748152666 pbc="T T T"
C       12.45298810      11.79366951      10.78244685       1.17926540      -0.90012851      -0.55606170       1.66176835       2.78513404      -1.68403826       0.00000000
C       11.61638059      10.80806606      11.56855103       0.04465512      -1.11095493      -0.97200286      -0.00768772      -4.65250598       0.14156689       0.00000000
O       10.49048307      11.51417585      12.18253647      -1.10240304      -0.32637057       0.04010454      -2.55961927      -0.56646030       2.11971866       0.00000000
H       11.73534530      12.29540659       9.90600196      -0.16630370       0.04796123      -0.29779327       0.72425211      -0.30874254       0.62347002       0.00000000
H       13.49092718      11.35817256      10.23966997       0.48160658       0.00514393      -0.16925725      -1.17260392       0.24787354       0.66188178       0.00000000
H       12.78584093      12.73853470      11.53989779      -0.01859099       0.21544749       0.20435293      -0.28783519      -0.98109672      -0.84007235       0.00000000
H       11.18312156       9.84414799      10.81738282      -0.10435392      -0.35572975      -0.30073001       0.74405976       1.14908116       0.55443575       0.00000000
H       12.36522266      10.16596687      12.34901840       0.37925879      -0.52498663       0.00975039      -0.44046081       0.56014524      -0.34808337       0.00000000
H        9.90622003      10.64574905      12.77658776      -0.15815017      -0.46097888       0.07303517       1.25757350       1.82540991      -1.27095482       0.00000000
9
Lattice="23.296006118037088 0.0 0.0 0.0 22.649327160371357 0.0 0.0 0.0 22.71683509278982" Properties=species:S:1:pos:R:3:momenta:R:3:forces:R:3:magmoms:R:1 Energy:=T 4.1390592=T energy=-37.309252748152666 dipole="-0.0009234806761328223 -0.2730854635138598 0.06657051528800793" magmom=0.0 free_energy=-37.309252748152666 pbc="T T T"
C       12.45797411      11.79029161      10.77999187       1.25664180      -0.74847223      -0.64529954       1.66176835       2.78513404      -1.68403826       0.00000000
C       11.61657353      10.80303307      11.56460239       0.05164878      -1.35317999      -0.95800432      -0.00768772      -4.65250598       0.14156689       0.00000000
O       10.48691224      11.51310488      12.18282134      -1.22111892      -0.37949702       0.14526635      -2.55961927      -0.56646030       2.11971866       0.00000000
H       11.72837985      12.29721754       9.89251046      -0.11525938       0.02387486      -0.25169985       0.72425211      -0.30874254       0.62347002       0.00000000
H       13.51273693      11.35880716      10.23236506       0.41028623       0.02175825      -0.12900250      -1.17260392       0.24787354       0.66188178       0.00000000
H       12.78452565      12.74761620      11.54864741      -0.03617156       0.15391156       0.15185586      -0.28783519      -0.98109672      -0.84007235       0.00000000
H       11.17889634       9.82826910      10.80344025      -0.07075123      -0.29707480      -0.27278788       0.74405976       1.14908116       0.55443575       0.00000000
H       12.38273773      10.14140386      12.34876673       0.32823860      -0.47468512      -0.02812906      -0.44046081       0.56014524      -0.34808337       0.00000000
H        9.90014791      10.62574478      12.77847839      -0.08914025      -0.35538916       0.00206166       1.25757350       1.82540991      -1.27095482       0.00000000
9
Lattice="23.296006118037088 0.0 0.0 0.0 22.649327160371357 0.0 0.0 0.0 22.71683509278982" Properties=species:S:1:pos:R:3:momenta:R:3:forces:R:3:magmoms:R:1 Energy:=T 4.1390592=T energy=-37.0681407270906 dipole="-0.00034949019997248637 -0.27106842337106923 0.06113018756539658" magmom=0.0 free_energy=-37.0681407270906 pbc="T T T"
C       12.46326502      11.78754844      10.77716953       1.33324040      -0.59534368      -0.73619454       1.60104362       3.07515438      -1.87219671       0.00000000
C       11.61680298      10.79699964      11.56071639       0.06056446      -1.59688165      -0.94362262       0.18130331      -4.94242688       0.27374075       0.00000000
O       10.48298593      11.51184590      12.18342835      -1.33470551      -0.43842378       0.24816574      -2.26757312      -1.15266076       2.05360964       0.00000000
H       11.72411358      12.29773313       9.88147447      -0.06122488      -0.00212356      -0.20167619       1.07243836      -0.51738838       1.01093688       0.00000000
H       13.53090849      11.36029285      10.22709902       0.33383040       0.03952738      -0.08680317      -1.59308019       0.36793631       0.86642062       0.00000000
H       12.78231610      12.75353298      11.55469575      -0.05414237       0.08955918       0.09714841      -0.35810264      -1.29805788      -1.09896890       0.00000000
H       11.17622704       9.81519883      10.79080035      -0.03456008      -0.23255160      -0.23962943       0.82357526       1.45382719       0.80591126       0.00000000
H       12.39720865      10.11971005      12.34627730       0.27477084      -0.42203445      -0.06789538      -0.90520309       0.94503713      -0.68423397       0.00000000
H        9.89753355      10.61111731      12.77678867      -0.02021640      -0.24852698      -0.06871568       1.36176667       2.10474802      -1.38601627       0.00000000
9
Lattice="23.296006118037088 0.0 0.0 0.0 22.649327160371357 0.0 0.0 0.0 22.71683509278982" Properties=species:S:1:pos:R:3:momenta:R:3:forces:R:3:magmoms:R:1 Energy:=T 4.1390592=T energy=-37.01470645701153 dipole="0.0004339183718444414 -0.2719196319620596 0.058066243912658765" magmom=0.0 free_energy=-37.01470645701153 pbc="T T T"
C       12.46887746      11.78542284      10.77397121       1.40886993      -0.44474983      -0.82758645       1.47874405       3.05733204      -1.84946682       0.00000000
C       11.61706883      10.78997364      11.55688537       0.07096788      -1.83744434      -0.92966902       0.24234507      -4.85377247       0.29447832       0.00000000
O       10.47871773      11.51041315      12.18434497      -1.43952523      -0.49989499       0.34583794      -2.00089789      -1.35057146       1.92379956       0.00000000
H       11.72241364      12.29701061       9.87285765      -0.00621576      -0.02881878      -0.14973099       1.16764424      -0.56969475       1.10437694       0.00000000
H       13.54526783      11.36265900      10.22390632       0.25356009       0.05806596      -0.04354109      -1.67568917       0.38699221       0.89529910       0.00000000
H       12.77924962      12.75634351      11.55811426      -0.07175551       0.02419331       0.04172467      -0.35914025      -1.36377259      -1.15799784       0.00000000
H       11.17552855       9.80560756      10.78008899       0.00579298      -0.15935148      -0.19835601       0.81968307       1.52702948       0.87482588       0.00000000
H       12.40951342      10.10027771      12.34215050       0.22659490      -0.37248054      -0.10348889      -1.05661867       1.07289827      -0.76520588       0.00000000
H        9.89817788      10.60152648      12.77178223       0.04583186      -0.14470703      -0.13610181       1.32785209       2.12301030      -1.35808331       0.00000000
9
Lattice="23.296006118037088 0.0 0.0 0.0 22.649327160371357 0.0 0.0 0.0 22.71683509278982" Properties=species:S:1:pos:R:3:momenta:R:3:forces:R:3:magmoms:R:1 Energy:=T 4.1390592=T energy=-37.01991274678726 dipole="0.0016044937951688522 -0.27401869553492486 0.05464079496710203" magmom=0.0 free_energy=-37.01991274678726 pbc="T T T"
C       12.47478687      11.78391124      10.77040146       1.47631029      -0.29709124      -0.91567621       1.26756362       2.95562447      -1.73772625       0.00000000
C       11.61738336      10.78197287      11.55311348       0.08441012      -2.07000293      -0.91528865       0.30505028      -4.61648399       0.29111910       0.00000000
O       10.47414786      11.50877676      12.18555164      -1.52981073      -0.56968415       0.43591994      -1.67571028      -1.49138438       1.74452184       0.00000000
H       11.72350787      12.29492481       9.86688358       0.05243280      -0.05738839      -0.09450135       1.22064375      -0.59371770       1.14468564       0.00000000
H       13.55561726      11.36595122      10.22285606       0.17074946       0.07690740       0.00040973      -1.69652708       0.38026940       0.89446700       0.00000000
H       12.77532372      12.75589055      11.55876171      -0.08894058      -0.04304982      -0.01552932      -0.34067057      -1.37450361      -1.17350053       0.00000000
H       11.17679155       9.79967045      10.77147108       0.04548358      -0.08369565      -0.15464804       0.79659821       1.55382923       0.90505102       0.00000000
H       12.41928972      10.08341280      12.33619258       0.17214516      -0.31795338      -0.14191467      -1.16068483       1.14755795      -0.79956967       0.00000000
H        9.90199974      10.59701599      12.76352590       0.10873693      -0.04163662      -0.20080859       1.23376953       2.07422506      -1.27690751       0.00000000
9
Lattice="23.296006118037088 0.0 0.0 0.0 22.649327160371357 0.0 0.0 0.0 22.71683509278982" Properties=species:S:1:pos:R:3:momenta:R:3:forces:R:3:magmoms:R:1 Energy:=T 4.1390592=T energy=-37.083505506995415 dipole="0.0032006352105663815 -0.27736671979217437 0.05089193963651381" magmom=0.0 free_energy=-37.083505506995415 pbc="T T T"
C       12.48095085      11.78299321      10.76648273       1.53214201      -0.15650996      -0.99704824       1.00601683       2.76912944      -1.57590756       0.00000000
C       11.61775915      10.77304498      11.54940006       0.10088694      -2.28828657      -0.90211834       0.36591914      -4.27246734       0.24520284       0.00000000
O       10.46932535      11.50691553      12.18702133      -1.60288801      -0.64462913       0.51578508      -1.30014465      -1.56052657       1.50774825       0.00000000
H       11.72752308      12.29141826       9.86364874       0.11255512      -0.08637128      -0.03849151       1.22765876      -0.58652400       1.13614825       0.00000000
H       13.56190691      11.37015343      10.22394624       0.08861244       0.09480536       0.04346529      -1.64825838       0.34857174       0.85884267       0.00000000
H       12.77058259      12.75214842      11.55660097      -0.10484344      -0.10950875      -0.07246250      -0.30692614      -1.33183847      -1.14493385       0.00000000
H       11.17996080       9.79745164      10.76501895       0.08349005      -0.00800895      -0.11046150       0.75110204       1.52828609       0.89431434       0.00000000
H       12.42628852      10.06929399      12.32832129       0.11373453      -0.26061175      -0.18120614      -1.21791420       1.18750933      -0.80045832       0.00000000
H        9.90877400      10.59746910      12.75221396       0.16572740       0.05716516      -0.26036356       1.08699759       1.94918341      -1.14829154       0.00000000
9
Lattice="23.296006118037088 0.0 0.0 0.0 22.649327160371357 0.0 0.0 0.0 22.71683509278982" Properties=species:S:1:pos:R:3:momenta:R:3:forces:R:3:magmoms:R:1 Energy:=T 4.1390592=T energy=-37.195551907736615 dipole="0.005200931719397371 -0.28195736130169397 0.04691569894882644" magmom=0.0 free_energy=-37.195551907736615 pbc="T T T"
C       12.48731685      11.78263129      10.76224752       1.57414089      -0.02702151      -1.06969377       0.70426283       2.50390213      -1.38236526       0.00000000
C       11.61820842      10.76325907      11.54573589       0.12033804      -2.48631938      -0.89113893       0.42616882      -3.79182898       0.20190085       0.00000000
O       10.46430682      11.50481902      12.18871834      -1.65640427      -0.72070639       0.58238896      -0.87914570      -1.53749337       1.20449650       0.00000000
H       11.73447607      12.28650816       9.86313269       0.17199875      -0.11426782       0.01588983       1.19300609      -0.54947964       1.07836981       0.00000000
H       13.56425230      11.37518976      10.22709163       0.01069135       0.11065198       0.08396098      -1.52484631       0.29673452       0.79022340       0.00000000
H       12.76510700      12.74521921      11.55170043      -0.11874126      -0.17260285      -0.12685365      -0.25902112      -1.23748084      -1.06998370       0.00000000
H       11.18492743       9.79889000      10.76070690       0.11858893       0.06508222      -0.06767197       0.67819569       1.44813406       0.84816176       0.00000000
H       12.43037285      10.05801688      12.31853452       0.05339138      -0.20179792      -0.21938144      -1.23938082       1.20750883      -0.75411708       0.00000000
H        9.91814944      10.60258659      12.73815416       0.21397775       0.14714321      -0.31185143       0.87785434       1.71490487      -0.94839841       0.00000000
9
Lattice="23.296006118037088 0.0 0.0 0.0 22.649327160371357 0.0 0.0 0.0 22.71683509278982" Properties=species:S:1:pos:R:3:momenta:R:3:forces:R:3:magmoms:R:1 Energy:=T 4.1390592=T energy=-37.3361354371404 dipole="0.007541978414839294 -0.28775243327488625 0.04285802528509335" magmom=0.0 free_energy=-37.3361354371404 pbc="T T T"
C       12.49382430      11.78277222      10.75773469       1.59984270       0.08751141      -1.13145203       0.34236663       2.16011026      -1.13255596       0.00000000
C       11.61874328      10.75271166      11.54211226       0.14264213      -2.65851667      -0.88177437       0.48209871      -3.22039316       0.17944286       0.00000000
O       10.45915575      11.50249071      12.19059695      -1.68758175      -0.79272792       0.63221926      -0.39046402      -1.39536915       0.82469400       0.00000000
H       11.74428391      12.28028316       9.86519716       0.22854216      -0.13972281       0.06613031       1.10955602      -0.48709907       0.96752424       0.00000000
H       13.56294876      11.38093617      10.23212802      -0.05935961       0.12334583       0.12022411      -1.32777023       0.22018464       0.68648490       0.00000000
H       12.75901157      12.73532873      11.54423942      -0.12983183      -0.22959259      -0.17634684      -0.19260925      -1.08325674      -0.94547905       0.00000000
H       11.19151698       9.80379373      10.75842449       0.14953557       0.13299251      -0.02831991       0.58201372       1.31731039       0.75433373       0.00000000
H       12.43149137      10.04962932      12.30694315      -0.00713289      -0.14305851      -0.25466764      -1.22528985       1.18447875      -0.68280837       0.00000000
H        9.92962557      10.61180782      12.72182486       0.25009743       0.22259106      -0.35173665       0.59301235       1.35748416      -0.67580854       0.00000000
9
Lattice="23.296006118037088 0.0 0.0 0.0 22.649327160371357 0.0 0.0 0.0 22.71683509278982" Properties=species:S:1:pos:R:3:momenta:R:3:forces:R:3:magmoms:R:1 Energy:=T 4.1390592=T energy=-37.47800470775435 dipole="0.010127098147248199 -0.2946564640268366 0.038895530223503456" magmom=0.0 free_energy=-37.47800470775435 pbc="T T T"
C       12.50040050      11.78334697      10.75299441       1.60680873       0.18308573      -1.17957571      -0.05869576       1.73186924      -0.82713765       0.00000000
C       11.61937496      10.74151750      11.53852466       0.16755773      -2.79989553      -0.87349415       0.53251532      -2.53684014       0.15774457       0.00000000
O       10.45394580      11.49995201      12.19259989      -1.69265216      -0.85406617       0.66134156       0.18398649      -1.10244830       0.36122502       0.00000000
H       11.75674690      12.27289254       9.86957691       0.27961032      -0.16139635       0.10942931       0.97004284      -0.39549119       0.79569884       0.00000000
H       13.55846787      11.38720948      10.23880716      -0.11783937       0.13164845       0.15049995      -1.05364386       0.11791491       0.54640860       0.00000000
H       12.75245523      12.72284602      11.53451589      -0.13735328      -0.27745406      -0.21825388      -0.11367926      -0.86575900      -0.76106037       0.00000000
H       11.19949928       9.81184977      10.75794720       0.17485280       0.19286925       0.00517454       0.44895514       1.12099169       0.60962817       0.00000000