9
Lattice="23.296006118037088 0.0 0.0 0.0 22.649327160371357 0.0 0.0 0.0 22.71683509278982" Properties=species:S:1:pos:R:3:momenta:R:3:forces:R:3:magmoms:R:1 Energy:=T 4.1390592=T energy=-36.951561123688556 dipole="-0.005868990090078306 -0.3037558600653639 0.09077807041643997" magmom=0.0 free_energy=-36.951561123688556 pbc="T T T"
C       12.41929290      11.83099836      10.79873498      -0.65812025      -0.69357469       1.00457355       0.86018809      -1.43959741       0.20973820       0.00000000
C       11.61002826      10.82378211      11.59841980      -0.62908185      -0.29689462      -0.14160594      -0.52025856      -0.01353661      -0.35453944       0.00000000
O       10.50792359      11.52863246      12.18586788       0.14094754       0.79092276      -0.83052779      -0.06997902       4.49286362      -1.22109880       0.00000000
H       11.80200606      12.27360013      10.00347993       0.15813706      -0.35714278       0.01689429      -1.81196545       1.37034615      -2.22046739       0.00000000
H       13.31491137      11.33371815      10.29899575       0.41927741      -0.18681979      -0.27768308       1.27329553      -0.73643949      -0.67441867       0.00000000
H       12.79759781      12.63625922      11.46668015       0.08115783      -0.22032115       0.30267458       0.84068485       1.94993359       1.53749211       0.00000000
H       11.23675466       9.97457907      10.91765502      -0.38840814      -0.55829105      -0.19501266      -0.19240421      -1.48857199      -1.29205960       0.00000000
H       12.25753696      10.35032150      12.39334551      -0.00200867      -0.05965786       0.19649882       1.80757598      -1.24477810       1.57521538       0.00000000
H       10.00810624      10.86459363      12.72111226       0.11068227      -0.16171797       0.14666461      -2.26778348      -2.89999102       2.39773373       0.00000000
9
Lattice="23.296006118037088 0.0 0.0 0.0 22.649327160371357 0.0 0.0 0.0 22.71683509278982" Properties=species:S:1:pos:R:3:momenta:R:3:forces:R:3:magmoms:R:1 Energy:=T 4.1390592=T energy=-37.09774750507776 dipole="-0.0010022927485398125 -0.3016903500292964 0.09345419113566343" magmom=0.0 free_energy=-37.09774750507776 pbc="T T T"
C       12.41668819      11.82801775      10.80286378      -0.58975583      -0.77164386       1.00934199       1.92374951      -1.73953720      -0.01555766       0.00000000
C       11.60740367      10.82256674      11.59780517      -0.65528838      -0.32290361      -0.16389178      -0.54692449      -1.04560209      -0.55298470       0.00000000
O       10.50835099      11.53139911      12.18322628       0.12465852       0.99832296      -0.87846814      -0.59334284       3.95289221      -0.73112897       0.00000000
H       11.80754308      12.25783843      10.00164630       0.06595201      -0.28624156      -0.09641435      -1.94199611       1.51689501      -2.39368959       0.00000000
H       13.33686360      11.32373446      10.28465907       0.46281491      -0.21294728      -0.29899493       0.49963946      -0.32752496      -0.19344285       0.00000000
H       12.80255800      12.62785744      11.48326717       0.12011954      -0.12793574       0.37399764       0.74591486       1.81218707       1.36692718       0.00000000
H       11.21759977       9.94559601      10.90660734      -0.38970330      -0.61338954      -0.24449346       0.13966263      -0.75514995      -0.72289866       0.00000000
H       12.25960184      10.34592538      12.40480439       0.08030112      -0.11680155       0.26618924       1.54424519      -1.08222854       1.26271954       0.00000000
H       10.01078570      10.85324431      12.73112717       0.00969079      -0.29010766       0.25396956      -1.84479405      -2.32829669       1.97194079       0.00000000
9
Lattice="23.296006118037088 0.0 0.0 0.0 22.649327160371357 0.0 0.0 0.0 22.71683509278982" Properties=species:S:1:pos:R:3:momenta:R:3:forces:R:3:magmoms:R:1 Energy:=T 4.1390592=T energy=-37.2413382947046 dipole="0.0029784317087558593 -0.2969680501238431 0.09589209442083173" magmom=0.0 free_energy=-37.2413382947046 pbc="T T T"
C       12.41446983      11.82468780      10.80698946      -0.47492430      -0.85533195       1.00063480       2.75242289      -1.66841103      -0.33901692       0.00000000
C       11.60466925      10.82114138      11.59707948      -0.68024686      -0.39938562      -0.19156167      -0.46943520      -2.06890010      -0.57378946       0.00000000
O       10.50868894      11.53476173      12.18047446       0.07886623       1.17349165      -0.89773999      -1.27141175       3.18033104      -0.05365985       0.00000000
H       11.80843291      12.24570664       9.99408460      -0.02726020      -0.21172660      -0.21147129      -1.85379377       1.51750509      -2.29166153       0.00000000
H       13.36001146      11.31296700      10.26985949       0.47061262      -0.22048781      -0.29807036      -0.18210076       0.02045956       0.23109287       0.00000000
H       12.80930314      12.62379222      11.50312523       0.15262867      -0.04579156       0.43353398       0.57792274       1.53288989       1.05751284       0.00000000
H       11.19877910       9.91480588      10.89382978      -0.37553689      -0.63461037      -0.26754631       0.43722256      -0.10900545      -0.21586027       0.00000000
H       12.26536209      10.33893950      12.41928495       0.14753402      -0.16459282       0.31787532       1.19361457      -0.86392848       0.84204189       0.00000000
H       10.00905058      10.83632340      12.74586092      -0.06673183      -0.38473476       0.33545071      -1.26728959      -1.52511043       1.34613651       0.00000000
9
Lattice="23.296006118037088 0.0 0.0 0.0 22.649327160371357 0.0 0.0 0.0 22.71683509278982" Properties=species:S:1:pos:R:3:momenta:R:3:forces:R:3:magmoms:R:1 Energy:=T 4.1390592=T energy=-37.334764164879154 dipole="0.00596855425094378 -0.2903827744235618 0.0979659429721794" magmom=0.0 free_energy=-37.334764164879154 pbc="T T T"
C       12.41280422      11.82102278      10.81104706      -0.32616651      -0.92845245       0.97345230       3.30529502      -1.30920359      -0.76790928       0.00000000
C       11.60184056      10.81930053      11.59623856      -0.69969864      -0.52363143      -0.21686165      -0.32268074      -2.99064058      -0.45647675       0.00000000
O       10.50883520      11.53860385      12.17771455      -0.00034823       1.30897265      -0.88290687      -1.95436106       2.33672963       0.65769449       0.00000000
H       11.80488664      12.23720623       9.98103898      -0.11125630      -0.14033219      -0.31500114      -1.56669735       1.38981934      -1.92428345       0.00000000
H       13.38272356      11.30224850      10.25561290       0.44824226      -0.21294093      -0.27828664      -0.72886579       0.28686448       0.57454035       0.00000000
H       12.81743126      12.62339518      11.52551391       0.17584330       0.02011743       0.47549294       0.36742383       1.15105754       0.65114101       0.00000000
H       11.18100469       9.88375490      10.88053566      -0.34784404      -0.62646686      -0.26803041       0.69048615       0.44062584       0.19614676       0.00000000
H       12.27397864      10.32988624      12.43578050       0.19675870      -0.20120574       0.34788549       0.81091363      -0.62702367       0.38003302       0.00000000
H       10.00428286      10.81575292      12.76381596      -0.11411501      -0.43810697       0.38484815      -0.66224950      -0.64831382       0.66542720       0.00000000
9
Lattice="23.296006118037088 0.0 0.0 0.0 22.649327160371357 0.0 0.0 0.0 22.71683509278982" Properties=species:S:1:pos:R:3:momenta:R:3:forces:R:3:magmoms:R:1 Energy:=T 4.1390592=T energy=-37.35253527551553 dipole="0.008029195191803597 -0.28303078282500366 0.09959686911754215" magmom=0.0 free_energy=-37.35253527551553 pbc="T T T"
C       12.41180241      11.81709484      10.81495043      -0.15631181      -0.97986661       0.92359169       3.61153208      -0.78448507      -1.26251564       0.00000000
C       11.59894706      10.81685908      11.59530597      -0.71124098      -0.68931456      -0.23441512      -0.14734642      -3.75631160      -0.25833611       0.00000000
O       10.50868680      11.54279826      12.17505379      -0.11058316       1.40389820      -0.83474953      -2.53462827       1.52883077       1.30336981       0.00000000
H       11.79759128      12.23203164       9.96338857      -0.17798485      -0.07762812      -0.39590125      -1.15062414       1.16361760      -1.37013252       0.00000000
H       13.40369149      11.29221647      10.24274118       0.40194289      -0.19401173      -0.24332460      -1.15653817       0.48397075       0.84918465       0.00000000
H       12.82643861      12.62575261      11.54946077       0.18832299       0.06623210       0.49710111       0.14077452       0.72682541       0.22878756       0.00000000
H       11.16488261       9.85375833      10.86771092      -0.30938495      -0.59413756      -0.25054832       0.87564556       0.87588848       0.51575947       0.00000000
H       12.28453571      10.31933253      12.45318547       0.22725933      -0.22592473       0.35560153       0.43113382      -0.37958384      -0.06582008       0.00000000
H        9.99793037      10.79363103      12.78336336      -0.13366799      -0.45066754       0.40220040      -0.13398717       0.13682193       0.04119170       0.00000000
9
Lattice="23.296006118037088 0.0 0.0 0.0 22.649327160371357 0.0 0.0 0.0 22.71683509278982" Properties=species:S:1:pos:R:3:momenta:R:3:forces:R:3:magmoms:R:1 Energy:=T 4.1390592=T energy=-37.29194392218693 dipole="0.009356511319063008 -0.27599577170545164 0.10076677232096387" magmom=0.0 free_energy=-37.29194392218693 pbc="T T T"
C       12.41152589      11.81300935      10.81860026       0.02385743      -1.00416366       0.84944939       3.72532345      -0.20493994      -1.75670855       0.00000000
C       11.59602397      10.81366326      11.59432149      -0.71415962      -0.88811795      -0.24160611       0.02849341      -4.33936438      -0.03449570       0.00000000
O       10.50815626      11.54722317      12.17258955      -0.24535892       1.46140051      -0.75766753      -2.95371336       0.81277946       1.83556489       0.00000000
H       11.78754249      12.22964158       9.94245945      -0.22297290      -0.02713920      -0.44764821      -0.68138015       0.89239308      -0.73710851       0.00000000
H       13.42189184      11.28334257      10.23190156       0.33730837      -0.16646228      -0.19654016      -1.47551012       0.63789843       1.05597258       0.00000000
H       12.83578284      12.62984932      11.57395511       0.18974474       0.09198551       0.49813033      -0.08287786       0.32190538      -0.18687586       0.00000000
H       11.15085594       9.82585775      10.85612038      -0.26311698      -0.54280931      -0.21929646       1.00847987       1.21430161       0.75687935       0.00000000
H       12.29612447      10.30787047      12.47043294       0.23976484      -0.23908975       0.34278957       0.07811598      -0.15652231      -0.45590898       0.00000000
H        9.99125726      10.77183655      12.80300933      -0.13002595      -0.42779176       0.39124930       0.28229844       0.79472637      -0.48714280       0.00000000
9
Lattice="23.296006118037088 0.0 0.0 0.0 22.649327160371357 0.0 0.0 0.0 22.71683509278982" Properties=species:S:1:pos:R:3:momenta:R:3:forces:R:3:magmoms:R:1 Energy:=T 4.1390592=T energy=-37.017916473056665 dipole="0.018972185006474657 -0.22891586800439653 0.15456000654739127" magmom=0.0 free_energy=-37.017916473056665 pbc="T T T"
C       12.50645639      11.63710242      10.83010601      -0.39349589      -1.27250132       0.81795256       1.10233065      -3.80877214       1.61037627       0.00000000
C       11.52118119      10.61830128      11.60816083      -0.69469158       1.06265094       0.47567065      -1.12982387       4.13445837       0.08257696       0.00000000
O       10.39431933      11.59204864      12.16161956       0.53448101      -0.60599439      -1.09896264       0.68688828      -0.03595480      -0.59207300       0.00000000
H       11.97381512      12.19890520      10.07541128       0.08214237      -0.32363939      -0.16387172      -2.20951985       1.82268410      -2.97201150       0.00000000
H       13.51870349      11.20915952      10.35001705       0.23594680      -0.20021303      -0.16493582      -0.34950273      -0.35973657       0.10131984       0.00000000
H       12.82273478      12.40458776      11.56581193       0.23790642      -0.12685798       0.15751073       0.86120067       1.91238420       2.01951112       0.00000000
H       11.12270323       9.86951656      10.87329361      -0.32847164      -0.01209984      -0.16959018      -1.09332069      -1.88351047      -1.87784856       0.00000000
H       12.05828729      10.03949152      12.40702474      -0.26535523       0.00890108      -0.00343026       1.46504026      -1.22758444       1.97082430       0.00000000
H        9.80733502      11.14076477      12.99424439      -0.19916271      -0.33352926       0.36793678       0.64696801      -0.59622119      -0.37713334       0.00000000
9
Lattice="23.296006118037088 0.0 0.0 0.0 22.649327160371357 0.0 0.0 0.0 22.71683509278982" Properties=species:S:1:pos:R:3:momenta:R:3:forces:R:3:magmoms:R:1 Energy:=T 4.1390592=T energy=-37.10498456548038 dipole="0.021868560979885588 -0.22789687779691992 0.15156441637815404" magmom=0.0 free_energy=-37.10498456548038 pbc="T T T"
C       12.50495806      11.63151665      10.83361236      -0.32911867      -1.45189726       0.89375890       1.51923971      -3.49659304       1.47661118       0.00000000
C       11.51822712      10.62306166      11.61011416      -0.75521737       1.24817173       0.46784970      -1.33490913       3.42032319      -0.40106187       0.00000000
O       10.39601185      11.59018566      12.15820135       0.55503853      -0.61155247      -1.11221671       0.15025514      -0.19038173       0.05234072       0.00000000
H       11.97517372      12.18531713      10.06387085      -0.02291096      -0.23590798      -0.30538575      -2.06846405       1.74991631      -2.79072612       0.00000000
H       13.52978151      11.19897398      10.34210200       0.21044496      -0.21502818      -0.15519634      -0.68898374      -0.24356610       0.29529142       0.00000000
H       12.83535688      12.40069493      11.57590277       0.27734262      -0.03836140       0.24915502       0.74472123       1.69137563       1.71242980       0.00000000
H       11.10539073       9.86667341      10.86278372      -0.37554104      -0.09400864      -0.25105749      -0.82344080      -1.45198148      -1.43966496       0.00000000
H       12.04711112      10.03845641      12.40921569      -0.19315001      -0.05253652       0.09358887       1.47530231      -1.27427919       1.97999094       0.00000000
H        9.79840517      11.12380062      13.01172039      -0.15832470      -0.35472305       0.33630499       1.01603830      -0.26683285      -0.91097715       0.00000000
9
Lattice="23.296006118037088 0.0 0.0 0.0 22.649327160371357 0.0 0.0 0.0 22.71683509278982" Properties=species:S:1:pos:R:3:momenta:R:3:forces:R:3:magmoms:R:1 Energy:=T 4.1390592=T energy=-37.227724466511425 dipole="0.02422375407234628 -0.22656051729746662 0.1490810876170987" magmom=0.0 free_energy=-37.227724466511425 pbc="T T T"
C       12.50376483      11.62522868      10.83741525      -0.24928284      -1.60627987       0.95858001       1.73183692      -2.79017927       1.16303556       0.00000000
C       11.51500496      10.62850893      11.61198694      -0.82389224       1.39333690       0.43957647      -1.46167015       2.49109646      -0.75028119       0.00000000
O       10.39772702      11.58829397      12.15479103       0.55144720      -0.62309008      -1.09633225      -0.29650111      -0.27945286       0.59450638       0.00000000
H       11.97158251      12.17591659      10.04565224      -0.11575152      -0.15693939      -0.43013783      -1.71219148       1.46584415      -2.28943101       0.00000000
H       13.53921080      11.18820559      10.33489357       0.16990773      -0.22494334      -0.13666671      -0.96177399      -0.16019941       0.45927269       0.00000000
H       12.84976109      12.40084954      11.59009143       0.30921931       0.03583486       0.32255448       0.55336207       1.33004588       1.27654475       0.00000000
H       11.08610774       9.86035567      10.84882872      -0.40759478      -0.15302893      -0.30876308      -0.48185217      -0.95144402      -0.91022343       0.00000000
H       12.03946533      10.03437197      12.41614473      -0.12357247      -0.11290405       0.18605337       1.35803602      -1.18400884       1.78535051       0.00000000
H        9.79190669      11.10619794      13.02701643      -0.10154901      -0.36070290       0.28087329       1.29598285       0.02332131      -1.34631358       0.00000000
9
Lattice="23.296006118037088 0.0 0.0 0.0 22.649327160371357 0.0 0.0 0.0 22.71683509278982" Properties=species:S:1:pos:R:3:momenta:R:3:forces:R:3:magmoms:R:1 Energy:=T 4.1390592=T energy=-37.343741266890284 dipole="0.025865603747580797 -0.22499970066775923 0.14757115731094336" magmom=0.0 free_energy=-37.343741266890284 pbc="T T T"
C       12.50291940      11.61838037      10.84145170      -0.16266986      -1.71972693       1.00446735       1.79521871      -1.82961466       0.70558989       0.00000000
C       11.51148926      10.63445648      11.61370905      -0.89696226       1.49031818       0.39833608      -1.51388912       1.45817730      -0.92911116       0.00000000
O       10.39939750      11.58636015      12.15147034       0.52810817      -0.63771703      -1.05630596      -0.65391139      -0.31618621       1.03544533       0.00000000
H       11.96389404      12.17002380      10.02195505      -0.18810660      -0.09497972      -0.52498453      -1.23425365       1.05727908      -1.57291843       0.00000000
H       13.54633857      11.17705385      10.32878419       0.11786685      -0.23114459      -0.11106318      -1.15743606      -0.09232802       0.58335486       0.00000000
H       12.86548949      12.40418694      11.60733485       0.33051697       0.09037409       0.37247904       0.31392198       0.89090182       0.75648443       0.00000000
H       11.06567169       9.85176114      10.83269557      -0.42312877      -0.18771047      -0.34069358      -0.15072341      -0.46085863      -0.39005115       0.00000000
H       12.03506931      10.02745421      12.42734610      -0.06252629      -0.16597696       0.26507516       1.12788763      -0.97722731       1.43257694       0.00000000
H        9.78850949      11.08865107      13.03909075      -0.03326461      -0.35418730       0.20670595       1.48469609       0.24200743      -1.67393074       0.00000000
9
Lattice="23.296006118037088 0.0 0.0 0.0 22.649327160371357 0.0 0.0 0.0 22.71683509278982" Properties=species:S:1:pos:R:3:momenta:R:3:forces:R:3:magmoms:R:1 Energy:=T 4.1390592=T energy=-37.41645028866881 dipole="0.026689492042941666 -0.2233975081651213 0.1472791317548482" magmom=0.0 free_energy=-37.41645028866881 pbc="T T T"
C       12.50243450      11.61116461      10.84562986      -0.07497414      -1.78408888       1.02662772       1.77592834      -0.79133407       0.19682532       0.00000000
C       11.50766953      10.64069688      11.61524457      -0.97057838       1.53551554       0.35232756      -1.48390812       0.38235070      -0.94444867       0.00000000
O       10.40096938      11.58437866      12.14830576       0.48919230      -0.65325325      -0.99693094      -0.93082148      -0.31648021       1.38242522       0.00000000
H       11.95325201      12.16666107       9.99449388      -0.23591972      -0.05385984      -0.58264887      -0.71279361       0.61720578      -0.77529017       0.00000000
H       13.55069662      11.16568116      10.32407076       0.05785058      -0.23472991      -0.08009589      -1.28654787      -0.05367331       0.67769578       0.00000000
H       12.88196910      12.40965626      11.62638854       0.34002671       0.12341111       0.39668091       0.07333384       0.45443251       0.22906454       0.00000000
H       11.04487496       9.84206378      10.81562903      -0.42293454      -0.19949984      -0.34853614       0.15863298      -0.01922823       0.07068650       0.00000000
H       12.03337231      10.01819795      12.44197561      -0.01421826      -0.20691461       0.32414111       0.83931324      -0.68983663       0.97270767       0.00000000
H        9.78866515      11.07168332      13.04715938       0.04235291      -0.33779228       0.11918777       1.59460209       0.42563057      -1.88998651       0.00000000
9
Lattice="23.296006118037088 0.0 0.0 0.0 22.649327160371357 0.0 0.0 0.0 22.71683509278982" Properties=species:S:1:pos:R:3:momenta:R:3:forces:R:3:magmoms:R:1 Energy:=T 4.1390592=T energy=-37.427269753585946 dipole="0.026678975916180896 -0.22197299944926663 0.14820816013797303" magmom=0.0 free_energy=-37.427269753585946 pbc="T T T"
C       12.50230626      11.60378994      10.84984755       0.01077448      -1.79997951       1.02487715       1.71592890       0.14423564      -0.26811230       0.00000000
C       11.50355179      10.64701406      11.61659041      -1.04140343       1.52910011       0.30865761      -1.40023093      -0.64360022      -0.83387996       0.00000000
O       10.40240093      11.58234946      12.14534961       0.43838289      -0.66817395      -0.92257049      -1.13824045      -0.29112076       1.64568276       0.00000000
H       11.94090428      12.16477530       9.96517745      -0.25881679      -0.03374875      -0.60159530      -0.21962114       0.20175814       0.00375343       0.00000000
H       13.55197596      11.15418003      10.32097905      -0.00706261      -0.23686403      -0.04521462      -1.35684855      -0.03323236       0.74274014       0.00000000
H       12.89862420      12.41621303      11.64599037       0.33780755       0.13554619       0.39636564      -0.16370254       0.03973258      -0.24190274       0.00000000
H       11.02445783       9.83232040      10.79873164      -0.40860433      -0.19181469      -0.33516556       0.42492224       0.33218292       0.47379027       0.00000000
H       12.03368378      10.00729093      12.45893280       0.01948028      -0.23267704       0.35984466       0.53295957      -0.35926163       0.48121326       0.00000000
H        9.79263667      11.05573410      13.05070529       0.12168172      -0.31343773       0.02321868       1.63582738       0.56613620      -2.01806902       0.00000000
9
Lattice="23.296006118037088 0.0 0.0 0.0 22.649327160371357 0.0 0.0 0.0 22.71683509278982" Properties=species:S:1:pos:R:3:momenta:R:3:forces:R:3:magmoms:R:1 Energy:=T 4.1390592=T energy=-37.38144112244924 dipole="0.02587005585056513 -0.22095843486702263 0.15013892737674817" magmom=0.0 free_energy=-37.38144112244924 pbc="T T T"
C       12.50252262      11.59644423      10.85401139       0.09307408      -1.77265794       1.00163886       1.63547726       0.96835405      -0.67819791       0.00000000
C       11.49915285      10.65320198      11.61776879      -1.10728866       1.47579356       0.27174743      -1.28274909      -1.52715042      -0.66917723       0.00000000
O       10.40366086      11.58027636      12.14264158       0.37883892      -0.68141201      -0.83724041      -1.28651069      -0.24795974       1.82913092       0.00000000
H       11.92803100      12.16337234       9.93587000      -0.25936777      -0.03216786      -0.58521923       0.19718388      -0.13738103       0.66311321       0.00000000
H       13.55000838      11.14259938      10.31966471      -0.07385427      -0.23862352      -0.00788628      -1.36304304      -0.03841775       0.77734518       0.00000000
H       12.91488756      12.42286488      11.66501332       0.32447161       0.12871559       0.37450940      -0.37936409      -0.31788824      -0.64812777       0.00000000
H       11.00505754       9.82337194      10.78296803      -0.38236239      -0.16892978      -0.30415742       0.64370244       0.59973715       0.78892397       0.00000000
H       12.03527061       9.99552419      12.47704152       0.03849019      -0.24245188       0.37203247       0.24116233      -0.03878935       0.01509888       0.00000000
H        9.80052271      11.04113964      13.04942198       0.20155132      -0.28323580      -0.07739539       1.61662458       0.66374735      -2.07913923       0.00000000
9
Lattice="23.296006118037088 0.0 0.0 0.0 22.649327160371357 0.0 0.0 0.0 22.71683509278982" Properties=species:S:1:pos:R:3:momenta:R:3:forces:R:3:magmoms:R:1 Energy:=T 4.1390592=T energy=-37.297934115559215 dipole="0.024354313791454824 -0.22056941463345267 0.15270143177350168" magmom=0.0 free_energy=-37.297934115559215 pbc="T T T"
C       12.50306743      11.58929300      10.85803903       0.17099313      -1.70773826       0.96015660       1.53754418       1.67530629      -1.01104347       0.00000000
C       11.49449630      10.65908322      11.61881279      -1.16649155       1.38261802       0.24297217      -1.12811253      -2.26714572      -0.50260983       0.00000000
O       10.40472683      11.57816588      12.14020932       0.31328947      -0.69207257      -0.74472644      -1.38279550      -0.18615992       1.93822488       0.00000000
H       11.91562958      12.16164063       9.90814937      -0.24153023      -0.04527145      -0.53940766       0.52919716      -0.39622352       1.20242672       0.00000000
H       13.54477906      11.13092680      10.32021056      -0.13964888      -0.24107757       0.03029929      -1.31624636      -0.06151620       0.77764832       0.00000000
H       12.93024310      12.42875602      11.68248532       0.30161862       0.10620334       0.33467654      -0.55125590      -0.59885628      -0.97394670       0.00000000
H       10.98719762       9.81585864      10.76909230      -0.34631438      -0.13419627      -0.25967576       0.82424542       0.81468170       1.02245930       0.00000000
H       12.03743454       9.98366463      12.49518638       0.04415231      -0.23709445       0.36259175      -0.01058924       0.25695462      -0.39954389       0.00000000
H        9.81227732      11.02813352      13.04316331       0.27914382      -0.24881861      -0.17905105       1.54309874       0.73779040      -2.06048486       0.00000000
9
Lattice="23.296006118037088 0.0 0.0 0.0 22.649327160371357 0.0 0.0 0.0 22.71683509278982" Properties=species:S:1:pos:R:3:momenta:R:3:forces:R:3:magmoms:R:1 Energy:=T 4.1390592=T energy=-37.201517395494 dipole="0.022290518533178354 -0.22100439346854592 0.15545933377993298" magmom=0.0 free_energy=-37.201517395494 pbc="T T T"
C       12.50392101      11.58247821      10.86186363       0.24344790      -1.61226362       0.90511976       1.41296053       2.21261433      -1.23016811       0.00000000
C       11.48961319      10.66450915      11.61975584      -1.21788399       1.25625812       0.22215117      -0.96469148      -2.87848516      -0.34526343       0.00000000
O       10.40558432      11.57602734      12.13806928       0.24440648      -0.69909412      -0.64879467      -1.42225902      -0.09977156       1.96831104       0.00000000
H       11.90449451      12.15896076       9.88330614      -0.20926861      -0.06939384      -0.46986951       0.78456111      -0.58608900       1.62930738       0.00000000
H       13.53639997      11.11910701      10.32261730      -0.20186089      -0.24494097       0.06773307      -1.21715275      -0.09580905       0.74673088       0.00000000
H       12.94427950      12.43321411      11.69762667       0.27114708       0.07130831       0.28051948      -0.68960680      -0.82213974      -1.23143829       0.00000000
H       10.97131011       9.81029487      10.75766331      -0.30253846      -0.09061932      -0.20547866       0.95839857       0.95985952       1.18455607       0.00000000
H       12.03957314       9.97241996      12.51237514       0.03846609      -0.21850380       0.33445612      -0.22096547       0.50009416      -0.74619604       0.00000000
H        9.82772454      11.01689292      13.03197393       0.35189989      -0.21195444      -0.27769573       1.41967547       0.76339314      -1.95652609       0.00000000
9
Lattice="23.296006118037088 0.0 0.0 0.0 22.649327160371357 0.0 0.0 0.0 22.71683509278982" Properties=species:S:1:pos:R:3:momenta:R:3:forces:R:3:magmoms:R:1 Energy:=T 4.1390592=T energy=-37.11421252704349 dipole="0.019897005256968525 -0.22242980262520906 0.15799268049641557" magmom=0.0 free_energy=-37.11421252704349 pbc="T T T"
C       12.50505836      11.57610777      10.86544118       0.30874300      -1.49388745       0.84147813       1.24598820       2.60790270      -1.36144759       0.00000000
C       11.48453634      10.66935700      11.62062956      -1.26141313       1.10343411       0.20825373      -0.80790320      -3.34481753      -0.22066816       0.00000000
O       10.40622738      11.57387375      12.13622600       0.17511898      -0.70095154      -0.55350366      -1.39926814       0.02413351       1.91213136       0.00000000
H       11.89523690      12.15487838       9.86236183      -0.16594545      -0.10086128      -0.38232681       0.97964549      -0.69532876       1.93560846       0.00000000
H       13.52510824      11.10705795      10.32681096      -0.25796536      -0.25105130       0.10291583      -1.06753450      -0.15301607       0.68598241       0.00000000
H       12.95666567      12.43570483      11.70982121       0.23462199       0.02699834       0.21556223      -0.79776890      -0.98225220      -1.41375238       0.00000000
H       10.95771605       9.80702803      10.74906894      -0.25336504      -0.04115834      -0.14457202       1.04404255       1.05429181       1.29568554       0.00000000