9
Lattice="23.296006118037088 0.0 0.0 0.0 22.649327160371357 0.0 0.0 0.0 22.71683509278982" Properties=species:S:1:pos:R:3:momenta:R:3:forces:R:3:magmoms:R:1 Energy:=T 4.1390592=T energy=-36.79116081393748 dipole="-0.0071067379064703754 -0.3055626616251376 0.08565314964420016" magmom=0.0 free_energy=-36.79116081393748 pbc="T T T"
C       12.42320783      11.83158532      10.79536606       0.27235663      -0.52612360       0.18816248      -0.23695114      -0.46603376       0.51431167       0.00000000
C       11.61042531      10.82654473      11.59880039      -0.53187895       0.40977308      -0.04504638      -0.51614105       1.25101107      -0.21268004       0.00000000
O       10.50561803      11.52833282      12.19065074      -0.59663695       0.70351740       0.71759049       0.47836555       4.90838258      -1.62531715       0.00000000
H       11.80031632      12.30956185      10.00480873       0.13215691       0.37284291       0.05422979      -1.45768874       1.04094510      -1.81067070       0.00000000
H       13.30199249      11.33861179      10.32248255       0.17366303      -0.09628992       0.19234524       2.06865395      -1.13985914      -1.16358878       0.00000000
H       12.79393051      12.64762992      11.46734658       0.00407547       0.00647359       0.31307133       0.76677593       1.68212781       1.40387967       0.00000000
H       11.26247054      10.00410770      10.92568552       0.12904866       0.02708038      -0.04613818      -0.61319786      -2.33034512      -1.94127888       0.00000000
H       12.26329249      10.36517115      12.37302122       0.12460658       0.23894105      -0.20959125       2.15327494      -1.49618634       2.02493159       0.00000000
H       10.00742659      10.86169987      12.70045539       0.08577184      -0.23462695      -0.26929110      -2.71415511      -3.45045864       2.72365963       0.00000000
9
Lattice="23.296006118037088 0.0 0.0 0.0 22.649327160371357 0.0 0.0 0.0 22.71683509278982" Properties=species:S:1:pos:R:3:momenta:R:3:forces:R:3:magmoms:R:1 Energy:=T 4.1390592=T energy=-36.88348373040158 dipole="-0.008073159821147197 -0.30243677862329393 0.09204539406361634" magmom=0.0 free_energy=-36.88348373040158 pbc="T T T"
C       12.42231871      11.83754430      10.79140368       0.06924176       0.91686893      -0.76818280       0.34636503      -1.04889832       1.03060367       0.00000000
C       11.61268741      10.82369683      11.59855110       0.02588923      -0.28953104      -0.09950669      -0.33052173       1.13562023       0.05225957       0.00000000
O       10.50538245      11.52691296      12.18945724      -0.68905581       0.22538660       0.34158358      -0.16003811       4.27302139      -1.10482953       0.00000000
H       11.79833790      12.28064256      10.00496852       0.08174009      -0.21152838       0.04593377      -1.85724692       1.41417652      -2.28205013       0.00000000
H       13.30711004      11.34589942      10.30868875       0.27254874       0.05625341      -0.08645535       1.81835952      -1.01880578      -0.98840334       0.00000000
H       12.79424134      12.64106308      11.48017821       0.00905381      -0.12802327       0.57373905       0.70972134       1.69354094       1.29444283       0.00000000
H       11.24964870      10.00911641      10.92432536      -0.13258447       0.12833360      -0.07360203      -0.55125744      -2.39326217      -1.92287325       0.00000000
H       12.26543816      10.37616709      12.39317166       0.16403870       0.46676103       0.19686617       1.96572972      -1.40902256       1.73547556       0.00000000
H        9.99146832      10.86564735      12.72855057      -0.22431828      -0.13438705       0.29237190      -2.00413561      -2.66768995       2.11447730       0.00000000
9
Lattice="23.296006118037088 0.0 0.0 0.0 22.649327160371357 0.0 0.0 0.0 22.71683509278982" Properties=species:S:1:pos:R:3:momenta:R:3:forces:R:3:magmoms:R:1 Energy:=T 4.1390592=T energy=-36.93810063884765 dipole="-0.008157431117407165 -0.3014450286040233 0.08072197219565501" magmom=0.0 free_energy=-36.93810063884765 pbc="T T T"
C       12.42294173      11.83068699      10.79143097       0.19207179      -0.75005041      -0.79598829      -0.85629494      -0.63851300      -0.37349571       0.00000000
C       11.61551665      10.82026408      11.59427936       0.71460229      -1.13308482      -1.13552021      -0.46065572       0.97059097       0.40509641       0.00000000
O       10.50963807      11.53236370      12.19245512       0.70809973       2.00193326       1.31010458       0.28223134       4.31115326      -1.43285277       0.00000000
H       11.79356536      12.29153561       9.97078830       0.00203589      -0.00355414      -0.63049042      -1.11419336       0.77916946      -1.26044590       0.00000000
H       13.28870215      11.33842158      10.29965319      -0.09631328      -0.10235423      -0.27664932       2.18240093      -1.22783334      -1.18178657       0.00000000
H       12.80227514      12.64468414      11.43745994       0.17924591      -0.04354242      -0.29290555       0.92583626       2.10738407       1.70577150       0.00000000
H       11.25484034       9.99432381      10.92156292      -0.02542990      -0.16963365      -0.12690026      -0.52675028      -2.16381311      -1.78451242       0.00000000
H       12.27402889      10.35869594      12.39071457       0.33481011       0.11290473       0.14063221       1.73997322      -1.21682368       1.49908432       0.00000000
H        9.99775974      10.87536011      12.72637281      -0.10090981       0.05812379       0.25324031      -2.23689801      -2.94593704       2.34107841       0.00000000