9
Lattice="23.296006118037088 0.0 0.0 0.0 22.649327160371357 0.0 0.0 0.0 22.71683509278982" Properties=species:S:1:pos:R:3:momenta:R:3:forces:R:3:magmoms:R:1 Energy:=T 4.1390592=T energy=-36.93810063884765 dipole="-0.008157431117407165 -0.3014450286040233 0.08072197219565501" magmom=0.0 free_energy=-36.93810063884765 pbc="T T T"
C       12.42294173      11.83068699      10.79143097       0.19207179      -0.75005041      -0.79598829      -0.85629494      -0.63851300      -0.37349571       0.00000000
C       11.61551665      10.82026408      11.59427936       0.71460229      -1.13308482      -1.13552021      -0.46065572       0.97059097       0.40509641       0.00000000
O       10.50963807      11.53236370      12.19245512       0.70809973       2.00193326       1.31010458       0.28223134       4.31115326      -1.43285277       0.00000000
H       11.79356536      12.29153561       9.97078830       0.00203589      -0.00355414      -0.63049042      -1.11419336       0.77916946      -1.26044590       0.00000000
H       13.28870215      11.33842158      10.29965319      -0.09631328      -0.10235423      -0.27664932       2.18240093      -1.22783334      -1.18178657       0.00000000
H       12.80227514      12.64468414      11.43745994       0.17924591      -0.04354242      -0.29290555       0.92583626       2.10738407       1.70577150       0.00000000
H       11.25484034       9.99432381      10.92156292      -0.02542990      -0.16963365      -0.12690026      -0.52675028      -2.16381311      -1.78451242       0.00000000
H       12.27402889      10.35869594      12.39071457       0.33481011       0.11290473       0.14063221       1.73997322      -1.21682368       1.49908432       0.00000000
H        9.99775974      10.87536011      12.72637281      -0.10090981       0.05812379       0.25324031      -2.23689801      -2.94593704       2.34107841       0.00000000